# vtk DataFile Version 3.0
Surface Data
ASCII
DATASET POLYDATA

POINTS  1003 float
 10.951043 -2.849392 -11.869976
 10.146012 -8.337281 -11.004532
 3.819867 -7.369726 -21.215502
 7.646420 -1.813905 -17.552380
 4.286997 -0.316596  0.922094
 0.552116 -18.613918 -11.427253
 2.381018 -5.535078 -4.575925
 8.972810 -10.529040 -13.025745
 8.675899 -10.895241 -9.778051
 8.073115 -10.833881 -14.861669
 10.817143 -5.425699 -11.748175
 9.996387 -8.018284 -13.671264
 10.437817 -4.763615 -13.913857
 1.933588 -10.605394 -20.869570
 4.219357 -11.739503 -18.824820
 6.096475 -9.831956 -18.396217
 8.364492  6.930619 -1.444977
 7.949769 -1.707270 -1.823557
 11.076054  1.844567 -6.455321
 7.142087 -3.504122 -3.438073
 11.217042 -1.241027 -8.993211
-2.843338 -11.165117 -19.545818
 6.728038 -12.060259 -7.704545
 2.781142 -16.315472 -7.270496
-1.700938 -11.527116 -2.852782
 8.197146 -11.744861 -10.561965
 8.195967 -11.585928 -12.647647
 7.292443 -12.597579 -12.062713
 9.542543 -9.749888 -11.958087
 5.620055 -12.742896 -15.599516
 8.878203 -9.746252 -14.976875
 7.565884 -10.842026 -15.784592
 7.488722 -10.131155 -16.615532
 6.870810 -11.864014 -15.196079
 7.165232 -12.065684 -14.144202
 10.693831 -3.565989 -13.174147
 9.713197 -7.631391 -14.812951
 8.953878 -10.132678 -14.108656
 9.597245 -9.311557 -13.326810
 1.375446 -3.991773 -21.444702
 3.980017 -10.054430 -20.268665
 2.843704 -11.078394 -20.333664
 3.105660 -9.197519 -21.030994
 1.034609 -10.365490 -21.051065
 6.995631  3.253873 -14.243748
 10.380283 -0.812273 -12.662847
 7.860927 -0.869966 -16.871561
 9.110571 -1.097472 -15.486416
 9.045781 -2.390911 -16.208735
 9.499937  0.696716 -13.457707
 9.750522 -0.611781 -14.059245
 9.031104  0.229818 -14.631360
 5.527034  0.618851 -18.035145
 6.599024 -1.879747 -18.525698
 5.986571 -0.473671 -18.299818
 7.574917  0.169705 -16.480663
 4.492418 -12.326159 -17.720745
 5.058006 -9.186650 -19.873409
 5.815776 -11.061170 -17.708412
 6.663222 -3.142174 -19.038046
 10.245191 -3.619208 -14.398691
 9.858743 -5.158731 -15.232612
 9.630342 -3.240947 -15.554630
 8.281270 -2.747094 -17.246843
 7.110289 -6.081746 -18.726934
 7.636495 -4.941486 -18.258978
 7.536356 -7.086545 -17.984110
 5.016842  2.704456  1.430236
 6.771980 -2.551999 -2.346414
 10.432308  5.076190 -3.617613
 6.268090 -0.656912  0.292996
 8.963212  3.666917  0.034011
 10.069460 -1.893096 -4.223199
 9.766729  0.280884 -2.253767
 5.113420 -2.997615 -2.710334
 8.126391 -10.873451 -8.376244
 10.015046 -8.192717 -9.443809
 9.191992 -9.546681 -8.847390
 8.518360 -9.425847 -7.521550
 7.424783 -9.239860 -6.570494
 11.070844 -3.701962 -11.072799
 10.177628 -5.809837 -7.129223
 10.843980 -5.863198 -10.584283
 10.566159 -6.928858 -10.095327
 6.191964 -6.335824 -5.170995
 7.550448 -7.369769 -5.876638
 11.146220 -2.312324 -10.472944
 9.995633  0.498584 -12.555890
 5.861399 -3.827617 -3.648653
 10.289423  1.508145 -10.490168
 10.417314 -2.766160 -5.381725
 1.776058 -13.511846 -18.617640
 7.455663 -12.226495 -9.382782
 6.090334 -13.485942 -8.577497
 7.324738 -12.665596 -10.837106
 6.499881 -13.433078 -9.945121
 5.848540 -13.210731 -14.294890
-6.596768 -10.307664 -3.717346
-6.796725 -11.899808 -4.360933
-6.364151 -17.996258 -11.433694
-8.989622 -12.862228 -13.276958
 3.635513 -14.851942 -6.628998
 0.574459 -16.304260 -4.994224
-0.855342 -15.320768 -3.412829
 1.311481 -18.312073 -8.921040
-4.516763 -16.711895 -4.726203
 4.152258 -15.950732 -9.380540
 3.895001 -15.258284 -13.896335
 6.145075 -10.943479 -6.523784
 3.901123 -9.151137 -5.519879
 3.048866 -10.631508 -5.275251
-2.884280 -10.227592 -2.741866
 2.042688 -13.639577 -4.663107
 0.846139 -14.004567 -3.934554
 4.014588 -4.451480 -4.095960
 1.051256 -2.262858 -20.964191
-4.042844 -0.330174  0.555005
-8.200329 -6.847993 -17.503721
-8.913820  1.528396 -9.700292
 2.255497 -4.244152 -3.819863
-7.973468  1.481306 -13.637345
-6.281937  0.492555 -17.577505
-2.091426 -9.839247 -20.439846
-6.882431 -3.433753 -18.933218
-5.661603 -5.315150 -19.930147
-5.777680 -7.011596 -19.454939
-5.369702 -2.607706 -20.017569
-1.907545 -4.459431 -21.845829
 6.017570  3.412925 -15.137860
 5.063963  3.281851 -16.122864
 3.189775  4.959112 -14.553554
 3.962227  2.215675 -17.852015
 3.424828  3.495651 -16.727499
 1.461962 -1.545628 -0.058086
 4.318705  6.547287 -0.354557
-6.293609  3.798021 -12.098375
-9.403371  0.130212 -12.091947
-8.989017 -0.755670 -14.148380
-9.455057 -2.808973 -14.946600
-9.623818 -9.168111 -7.126693
-8.110405  0.826984 -6.269452
-1.323044 -9.703744 -3.307967
-5.835288 -1.678519 -0.287286
-2.079194 -8.197870 -2.865657
-8.371178 -2.518933 -4.209178
-9.356307 -6.359239 -6.229871
 6.621726 -3.996361 -19.348413
 6.157529 -4.551683 -19.863604
 8.660425 -5.903192 -16.926538
 10.920704 -2.450847 -6.633795
 8.417274 -4.867197 -17.333233
-2.311959  3.916616 -17.100494
-6.248601 -5.294359 -1.036562
 10.577423 -4.089149 -6.647995
 7.942439 -5.943266 -17.773375
 6.328467 -6.897395 -19.452459
 9.936622 -4.877205 -5.977363
 4.535799 -14.152301 -14.759821
 5.437886 -9.853915 -19.142395
 9.252751 -5.921514 -16.151722
-3.306021  3.960990 -16.246967
 0.087528 -9.255269 -4.130815
 5.890846 -3.466286 -19.826824
 0.474683  0.798806 -19.685665
 8.189001 -6.781321 -17.318924
 10.070831 -3.813196 -5.408676
-4.510294  2.324469 -17.794117
-7.586534 -3.012166 -2.116983
 5.502188 -7.650186 -20.075315
 3.815765 -6.865468 -5.086802
-3.586124 -1.382203 -20.680887
 5.509455 -14.120349 -12.922741
-7.716196 -1.758825 -2.828419
 8.769659 -7.095246 -16.533960
 9.738628 -2.980792 -4.442067
 7.029193 -8.521463 -18.057280
 7.250987 -3.976954 -18.661621
 8.822676 -3.672476 -16.788292
 7.441978 -2.940508 -18.182495
 6.813479 -9.947449 -17.538780
 5.140120 -10.968191 -18.586788
 9.812724 -4.203603 -15.426407
 4.889207 -3.402694 -20.425407
 5.398737 -14.595939 -9.587842
 8.402305 -8.673851 -16.423264
 4.937658 -6.780332 -20.722456
-2.464875 -1.422913 -21.066126
 5.408702 -4.201056 -20.370514
 11.030737 -3.780196 -8.294846
 4.601799 -10.625437 -19.454821
 9.525656 -6.639704 -15.561779
 6.763282 -4.666516 -4.332653
 4.458179 -8.368358 -20.650248
 9.158395 -7.789304 -15.805660
 7.869654 -5.488637 -5.038809
-6.862689  1.277385 -4.032926
-0.463132 -1.364507 -20.953854
-1.649572  6.176691 -10.431894
 9.350492 -1.854706 -3.251268
-2.602800  4.809833 -4.211059
-8.312139 -0.713206 -5.233685
 10.100917 -6.150452 -14.503349
 5.318143 -5.154496 -4.581773
-2.575337  4.692570 -15.125902
-9.837595 -4.158588 -14.818137
 11.109698 -0.763994 -6.478956
 5.954632 -2.507868 -19.384218
 1.413378  0.425417 -19.674013
-5.531145  1.702537 -17.321272
 6.531330 -10.961782 -17.014910
 9.608556 -1.886885 -15.161901
 10.123437 -2.072377 -14.175416
 5.572958 -12.062768 -16.770741
 4.223266 -15.290571 -8.002858
-10.797553 -6.714736 -10.004500
-9.794507 -6.071893 -7.218388
 9.075983 -8.805114 -15.426051
 7.057066 -0.714719 -17.542824
 1.507795  2.751083 -18.008572
 2.580220  0.456404 -19.412224
 8.337017 -9.858196 -15.741383
 8.441762 -1.566858 -16.606195
-5.920647  2.130224 -3.571282
 10.729818 -5.152586 -7.975754
 3.594159 -11.533769 -19.573805
 10.820919  0.172744 -4.735008
 10.940457  2.024873 -4.229319
 2.769640  7.697659 -5.283926
 10.209743 -6.900463 -13.871095
-1.270258  5.024693 -3.266507
 5.287416 -1.476693 -19.298189
 0.148585 -3.061122 -21.429050
 3.413583 -2.168904 -20.418638
 1.569089 -17.282907 -7.123416
 6.665080 -11.451437 -16.210854
 5.248032 -13.568502 -7.322138
 9.053830  2.775969 -11.795363
 5.684116  5.833110 -11.523153
 2.423202 -12.169221 -4.864854
 10.629995 -2.304224 -12.895627
 3.081904 -13.203892 -5.253162
 10.272812  4.395770 -6.085118
 3.784008 -12.101812 -5.557526
 6.048990  7.331519 -6.793552
 10.817554 -4.332705 -12.556360
 2.261324 -15.805618 -6.002685
 2.836328 -14.403739 -5.491033
 1.518212 -15.154160 -4.842607
-6.718125 -4.917425 -19.092813
 7.371146  4.058240 -12.668357
 4.021577 -13.429900 -6.020447
 8.697335  6.888443 -3.626738
 10.526219 -5.747388 -13.286800
 2.624840 -12.331898 -19.493320
 1.168128 -16.836809 -6.060877
 9.460261 -8.972636 -14.445313
 8.406614 -0.340004 -15.902316
 2.448673  3.585591 -16.862919
-4.220671  1.718195 -0.656499
 1.844272 -7.098662 -21.661125
-7.562209  2.098211 -6.652681
 2.284676 -8.878241 -5.074544
 11.049439 -4.510084 -10.106763
 2.950437 -4.197848 -21.231094
-6.710940 -7.597476 -18.530569
 1.227331 -12.551588 -4.136641
 10.457266  2.700835 -2.354204
 4.831904 -0.084990 -18.846676
-7.057551  0.475455 -16.384731
 1.439862 -16.094719 -5.423748
-6.010724 -3.782449 -19.704723
-10.117527 -4.771041 -8.181046
-7.427400 -0.518630 -16.900854
 10.167435  4.866280 -1.780712
 6.473378 -12.971419 -13.451318
-9.270046 -1.838091 -14.532682
 8.297720  0.259943 -0.521829
 3.680552  0.334368 -19.146202
-6.470747 -6.231380 -19.110701
 5.601467 -13.840220 -8.028337
 10.867965 -5.473141 -9.289040
-0.798623 -3.973189 -21.796421
 1.663971 -12.202434 -19.972071
-4.709752 -4.959491 -20.743837
 10.431953 -6.896868 -12.805454
 8.962454  2.207304 -12.768695
 1.672925 -8.916531 -21.405338
 9.086603 -6.273960 -6.129681
 0.186974 -15.335444 -4.005448
 10.557491 -6.968040 -11.492691
 7.004449  5.525121  0.510070
-8.664392 -1.052714 -15.158104
 8.182100 -11.248039 -13.697175
 10.432034 -6.582041 -8.598905
-1.832452 -6.008183 -21.756613
 3.293870  4.187901 -15.774751
-0.884316 -16.509113 -4.374101
 5.907891 -1.991617 -1.317221
 6.538191  0.621934 -17.191973
 6.525548 -13.195632 -12.612647
 4.109762  3.029722 -17.006012
 8.935517  1.477115 -13.609441
 4.762469 -10.752740 -5.877490
-4.238486  4.273863 -4.988244
 4.547970  1.266629 -18.221268
 7.346676  1.362022  0.749509
 1.748243  4.254672  0.791610
 0.483005 -5.247215 -21.749090
 2.164685  5.219331 -14.450567
 1.087004 -11.418364 -20.607082
 5.717002 -8.678037 -5.829967
 5.707091  0.616857  1.091780
 2.693878  1.749824  1.692269
-5.275190  4.124237 -12.526056
 3.119502  5.669149 -13.295179
 10.121655 -8.246545 -12.428775
-3.982994 -15.743940 -3.790288
-3.754599 -6.634031 -21.071386
 4.226449  4.643507 -14.622218
[...]
POINT_DATA  1003
SCALARS atrophy float 1
LOOKUP_TABLE default
  2.00000
  2.00000
  0.00049
  1.99927
  0.03737
 -0.00000
  0.00152
  2.00000
  1.99999
  1.99984
  2.00000
  2.00000
  2.00000
  0.00000
  0.00812
  1.75985
  1.99965
  1.99916
  2.00000
  1.99689
  2.00000
  0.00000
  1.99015
  0.00000
  0.00000
  1.99994
  1.99995
  1.99645
  2.00000
  1.84873
  2.00000
  1.99641
  1.99848
  1.99393
  1.99852
  2.00000
  2.00000
  2.00000
  2.00000
  0.00000
  0.00244
  0.00004
  0.00012
  0.00000
  1.99253
  2.00000
  1.99989
  2.00000
  2.00000
  2.00000
  2.00000
  2.00000
  1.81143
  1.95774
  1.87524
  1.99983
  0.03226
  0.08220
  1.77089
  1.98609
  2.00000
  2.00000
  2.00000
  1.99997
  1.99090
  1.99966
  1.99931
  0.18880
  1.95318
  2.00000
  1.85645
  2.00001
  2.00000
  2.00000
  0.13785
  1.99986
  2.00000
  2.00000
  1.99991
  1.99743
  2.00000
  2.00000
  2.00000
  2.00000
  1.97422
  1.99908
  2.00000
  2.00000
  1.91144
  2.00000
  2.00000
  0.00001
  1.99804
  1.57641
  1.99795
  1.94795
  1.87679
  0.00000
  0.00000
  0.00000
  0.00000
  0.00014
  0.00000
  0.00000
 -0.00000
  0.00000
 -0.00068
  0.00222
  1.68685
  0.04955
  0.00085
  0.00000
  0.00000
  0.00000
  0.09574
  0.00000
  0.00000
  0.00000
  0.00000
  0.00095
  0.00000
  0.00000
  0.00000
  0.00000
  0.00000
  0.00000
  0.00000
  0.00000
  1.81724
  0.19821
  0.00023
  0.01035
  0.00057
  0.00002
  0.10096
  0.00000
  0.00000
  0.00000
  0.00000
  0.00000
 -0.00000
  0.00000
  0.00000
  0.00000
  0.00000
  0.00000
  1.98254
  1.80892
  2.00000
  2.00000
  1.99999
  0.00000
  0.00000
  2.00000
  1.99985
  1.76149
  2.00000
  0.07222
  0.24642
  2.00000
  0.00000
  0.00000
  1.76878
  0.00000
  1.99998
  2.00000
  0.00000
  0.00000
  0.17677
  0.06624
  0.00000
  0.20524
  0.00000
  2.00000
  2.00000
  1.99227
  1.99901
  2.00000
  1.99900
  1.98683
  0.19091
  2.00000
  0.06872
  0.10338
  1.99999
  0.01852
  0.00000
  0.22369
  2.00000
  0.01903
  2.00000
  1.99686
  0.00693
  2.00000
  1.99966
 -0.00000
  0.00000
  0.00000
  1.99999
  0.00000
  0.00000
  2.00000
  1.91079
  0.00000
  0.00000
  2.00000
  1.76487
  0.00000
  0.00000
  1.94803
  2.00000
  2.00000
  0.26897
  0.00032
  0.00000
  0.00000
  2.00000
  1.99648
  0.00000
  0.00012
  1.99992
  1.99999
  0.00000
  2.00000
  0.00060
  2.00000
  2.00000
  0.00037
  2.00000
  0.00000
  0.17850
  0.00000
  0.00066
 -0.00000
  1.91439
  0.05353
  2.00000
  1.78827
  0.00003
  2.00000
  0.00006
  2.00000
  0.00274
  1.84377
  2.00000
  0.00000
  0.00001
  0.00000
  0.00000
  1.99633
  0.00152
  1.99988
  2.00000
  0.00002
 -0.00000
  2.00000
  2.00000
  0.00002
 -0.00000
  0.00000
 -0.00000
  0.00106
  2.00000
  0.00013
  0.00000
  0.00000
  2.00000
  0.15984
  0.00000
  0.00000
  0.00000
  0.00000
  0.00000
  2.00000
  1.96831
  0.00000
  1.99988
  0.00600
  0.00000
  0.38965
  2.00000
  0.00000
  0.00000
  0.00000
  2.00000
  2.00000
  0.00000
  1.99999
  0.00000
  2.00000
  2.00175
  0.00000
  1.99997
  2.00000
  0.00000
  0.00036
  0.00000
  1.81890
  1.99097
  1.91542
  0.01056
  2.00000
  0.03829
  0.00000
  0.15086
  1.99657
  0.00012
  0.00000
  0.00001
  0.00000
  1.91732
  1.82795
  0.00179
  0.00000
  0.00028
  2.00000
  0.00000
  0.00000
  0.00704
  1.99846
  0.00000
  1.83502
  0.00328
  0.00006
  0.00000
  0.32028
  1.98929
  0.00000
  0.00000
  0.00000
  1.99990
  2.00000
  0.18942
  0.00000
  0.14064
  1.99933
  0.01044
  2.00000
  2.00000
  0.00000
  1.99998
  0.00000
  0.00000
  0.36208
  1.80396
  0.03944
  2.00000
  1.79710
  2.00000
  1.99997
  0.00000
  1.98318
  0.00000
  0.00000
  0.00000
  0.27857
  1.77551
  1.99996
  1.99441
  0.00000
  1.99993
  1.98503
  0.00000
  2.00000
  2.00000
  0.00000
  1.99937
  2.00000
  1.99999
  0.00002
  2.00000
  2.00000
  2.00000
  2.00000
  0.00000
  0.00030
  2.00000
  0.00000
  0.00000
  2.00000
  1.99998
  1.94801
  0.17165
  2.00000
  2.00000
  1.72544
  1.99287
  2.00000
  1.99296
  0.00000
  2.00000
  0.00002
  0.15378
  1.98638
  0.00000
  2.00000
  0.00005
  0.11521
  2.00000
  1.99381
  2.00000
  0.00869
  2.00000
  1.99981
  1.99996
  0.00011
  0.17417
  1.91467
  0.00000
  1.99489
  0.00000
  0.00000
  2.00000
  1.99995
  2.00000
  0.00675
  0.08967
  0.00023
  0.00020
  2.00000
  2.00000
  1.83694
  2.00000
  0.00000
  2.00000
  0.15137
  2.00000
  2.00000
  2.00000
  0.00000
  1.99977
  0.00000
  0.06803
  1.99998
  2.00000
  2.00000
  0.00283
  0.16324
  1.99304
  1.99959
  1.85267
  0.19038
  0.00005
  1.99760
  1.80720
  1.78584
  1.99995
  0.00000
  1.99983
  0.00094
  2.00000
  0.00439
  1.98418
  0.00004
  1.89780
  0.00000
  1.98760
  2.00025
  1.99416
  2.00000
  0.00000
  1.84063
  0.18958
  2.00000
  0.00105
  2.00000
  1.99999
  2.00001
  0.00000
  0.00061
  0.00229
  0.00053
 -0.00000
  0.00006
  0.00000
  0.00000
 -0.00000
  0.00000
  0.00000
  0.00000
 -0.00000
  0.00000
 -0.00000
  0.00000
  0.00000
  0.00000
 -0.00000
  0.00000
  0.00000
  0.00000
  0.00000
  0.00000
  0.00000
  0.00000
  0.00000
  0.00000
  0.00000
  0.05315
 -0.00000
  0.00000
  1.84739
  0.00293
  0.00000
  0.00575
  1.99989
 -0.00000
  0.00000
  0.00000
  0.00000
  0.00000
  1.99954
  0.00001
  0.00001
  0.00001
  0.00000
  0.00000
  0.00000
  0.00000
  0.00000
  0.00003
  0.00000
  0.00000
  0.00000
  0.00000
  0.00000
 -0.00000
  0.00000
  0.00000
  0.00000
  0.00000
 -0.00000
  0.00000
 -0.00000
  0.12932
  0.00000
  0.00175
  0.00000
  0.00000
  0.00000
  0.00000
  0.00000
  0.00035
  0.06134
  0.00000
  0.00000
  0.00000
 -0.00001
  0.00000
 -0.00000
 -0.00000
  0.00000
  0.00000
  0.00000
  0.00000
 -0.00000
  0.00000
 -0.00000
  0.00000
  0.00000
  0.00005
  0.03821
  0.00000
  0.00000
 -0.00000
 -0.00000
  0.00000
  0.00000
  0.00000
  0.00000
  0.00065
 -0.00000
 -0.00000
  0.00000
  0.00000
  0.00000
  0.00000
  0.00000
  2.00000
  0.00000
  0.00000
  0.00000
  0.00000
  0.00000
  0.00000
  0.00000
  0.00000
 -0.00000
  0.00000
  0.00000
  0.00000
  0.00000
  0.00000
  0.00000
  0.00000
  0.00000
  0.00000
 -0.00000
  0.00000
  0.00000
 -0.00000
 -0.00000
  0.00000
  0.00000
  0.00000
  0.00000
  0.00000
 -0.00000
 -0.00000
  0.00000
  0.00000
 -0.00000
  0.00000
  0.00000
 -0.00000
  0.00000
 -0.00000
 -0.00000
  0.00000
 -0.00000
  0.00000
 -0.00000
 -0.00000
  0.00000
  0.00000
  0.00000
  0.00000
  0.00000
  0.00000
  0.00000
  0.00000
  0.00000
 -0.00000
  0.00000
  0.00000
  0.00000
 -0.00000
 -0.00000
  0.00000
  0.00000
  0.00000
  0.00000
  0.00000
  0.00000
  0.00000
  0.00000
  0.00000
 -0.00000
  0.00000
 -0.00000
  0.00000
  0.00000
  0.00000
  0.00000
  0.00000
  0.00000
  0.00000
  0.00000
  0.00000
  0.00000
  0.00000
  0.00000
  0.00000
  0.00000
  0.00000
  0.00000
  0.00000
  0.00000
  0.00000
  0.00000
  0.00000
  0.00000
  0.00000
  0.00000
  0.00000
  0.00000
  0.00000
  0.00000
  0.00000
  0.00000
  0.00000
  0.00000
  0.00000
  0.00000
  0.00000
  0.00000
  0.00000
  0.00000
  0.00000
  0.00000
  0.00000
 -0.00000
  0.00000
  0.00000
 -0.00000
 -0.00000
  0.00000
  0.00000
  0.00000
  0.00000
  0.00000
  0.00000
  0.00000
  0.00000
  0.00000
  0.00000
  0.00000
  0.00000
  0.00000
 -0.00000
  0.00000
 -0.00000
 -0.00000
 -0.00000
  0.00000
  0.00000
  0.00000
  0.00000
  0.00000
  0.00000
  0.00000
  0.00000
  0.00000
  0.00000
  0.00001
 -0.00000
  0.00000
  0.00000
  0.00000
  0.00000
  0.00000
  0.00000
  0.00000
  0.00000
  0.00000
  0.00000
  0.00000
  0.00000
 -0.00000
  0.00000
  0.00000
  0.00000
  0.00000
  0.00000
  0.00000
  0.00000
  0.00000
  0.00000
  0.00000
 -0.00000
  0.00000
  0.00000
 -0.00000
  0.00000
  0.00000
  0.00000
  0.00000
  0.00000
  0.00000
  0.00000
  0.00000
  0.00000
  0.00000
  0.00000
  0.00000
  0.00000
  0.00000
  0.00000
 -0.00000
  0.00000
 -0.00000
  0.00000
  0.00000
  0.00000
  0.00000
  0.00000
  0.00000
  0.00000
  0.00000
 -0.00000
 -0.00000
  0.00000
  0.00000
  0.00000
  0.00000
  0.00000
  0.00000
  0.00000
  0.00000
  0.00000
  0.00000
  0.00000
  0.00000
  0.00000
  0.00000
  0.00127
  0.00217
  0.00000
  0.00000
  0.00000
  0.00000
  0.00001
  0.00000
  0.00000
  0.00923
  0.00062
  0.00821
  0.00002
  0.00000
  0.00000
  0.00000
  0.00000
  0.06990
  0.00000
  0.00096
  0.00594
  0.10558
  0.00000
  0.00003
  0.00000
  0.00000
  0.00000
  0.00001
  0.00000
  0.00022
  0.00000
  0.00000
  0.00000
  0.00000
 -0.00000
  0.00001
  0.00002
  0.00000
  0.00000
  0.00745
  0.00000
  0.15847
  0.00000
  0.00000
  0.00000
  0.00000
  0.00000
  0.00025
  0.00000
  0.00014
  0.00000
  0.00000
  0.00135
  0.00000
  0.00000
  0.00000
  0.00000
  0.00000
  0.00514
  0.00004
  0.01171
  0.01105
  0.00446
  0.00000
  0.00000
  0.00000
  0.00000
  0.00006
  0.00000
  0.00000
  0.00000
  0.00000
  0.00000
  0.00000
  0.00000
  0.00000
  0.00000
  0.00000
  0.00000
  0.00000
  0.00000
  0.00000
  0.00000
  0.00000
  0.00000
  0.00000
  0.00000
  0.00000
  0.00000
  0.00000
  0.00000
  0.00000
  0.00000
  0.00000
  0.00000
  0.00000
  0.00000
  0.00000
  0.00000
  0.00000
  0.00000
  0.00000
  0.00000
  0.00000
  0.00000
  0.00000
  0.00000
  0.00000
  0.00000
  0.00000
  0.00000
  0.00000
  0.00000
  0.00000
  0.00000
  0.00000
  0.00211
  0.00000
  0.00893
  0.00000
  0.00000
  0.00000
  0.00000
  0.00000
  0.00000
  0.00000
  0.00000
  0.00000
  0.21271
  0.00000
  0.00001
  0.00000
  0.00000
  0.00000
  0.00000
  0.00007
  0.00000
  0.00000
  0.00000
  0.00005
  0.00000
  0.00000
  0.00221
  0.00000
  0.00000
  0.00283
  0.01504
  0.00001
  0.00001
  0.00000
  0.00000
  0.00000
  0.00001
  0.00000
  0.00000
  0.00005
  0.00000
  0.00004
  0.00000
  0.00000
  0.00000
  0.00000
  0.00000
  0.00004
  0.00000
  0.00000
  0.00000
  0.00000
  0.00000
  0.00000
  0.00000
  0.00000
  0.00000
  0.00022
  0.00000
  0.00003
  0.01173
  0.00001
  0.00000
  0.00025
  0.00518
  0.13462
  1.86173
  1.98882
  1.99952
  0.00035
  0.00001
  0.00506
  1.99994
  2.00000
  2.00000
  1.84466
  2.00000
  1.77368
  1.99894
  2.00000
  1.99952
  1.99980
  0.12785
  1.99200
  1.87057
  1.99988
  0.00000
  0.00000
  0.00000
  0.00000
  0.00000
  0.00000
  0.00000
