# vtk DataFile Version 3.0
Surface Data
ASCII
DATASET POLYDATA

POINTS  1003 float
 9.738881 -2.914958 -11.631972
 8.815510 -7.682928 -11.135592
 3.478374 -7.401361 -20.758383
 7.029077 -1.991296 -16.919029
 4.330208 -0.094492  1.160890
 0.605156 -19.335411 -11.941959
 2.153585 -5.332803 -4.603241
 7.657999 -9.714944 -12.765368
 7.493214 -10.012934 -10.129172
 7.083147 -10.186306 -14.323472
 9.630445 -5.273025 -11.638177
 8.786373 -7.604429 -13.356691
 9.330391 -4.784374 -13.566573
 1.642254 -9.820354 -20.027155
 3.990074 -10.862921 -18.113140
 5.641483 -9.198700 -17.698536
 7.004008  5.187582 -2.339736
 7.593141 -1.079073 -2.563148
 9.400086  1.483958 -6.399326
 6.782619 -3.067371 -4.162866
 9.856466 -1.205259 -8.890167
-3.002490 -10.962024 -19.498934
 6.206714 -11.585819 -8.236151
 2.882901 -16.577032 -6.827212
-1.442972 -11.521262 -3.407282
 7.087562 -10.875305 -10.718611
 7.042194 -10.762696 -12.466660
 6.473567 -11.938654 -12.015697
 8.165228 -8.934883 -11.913467
 5.342700 -12.338781 -15.434394
 7.723513 -9.134472 -14.385181
 6.739779 -10.202315 -15.135606
 6.712987 -9.491663 -15.894845
 6.252376 -11.317284 -14.794431
 6.442869 -11.502218 -13.872896
 9.531513 -3.650222 -12.851816
 8.604723 -7.317287 -14.362951
 7.722088 -9.443878 -13.657441
 8.286524 -8.656611 -13.033846
 1.330096 -4.090622 -21.368160
 3.694253 -9.404646 -19.464304
 2.570031 -10.225908 -19.446568
 2.822877 -8.750506 -20.330938
 0.760216 -9.639612 -20.314400
 6.402349  2.601208 -13.758869
 9.249938 -1.091161 -12.267756
 7.222102 -1.153044 -16.273693
 8.195075 -1.413419 -14.875266
 8.134236 -2.568882 -15.573606
 8.521976  0.173877 -12.928343
 8.720591 -0.976329 -13.531915
 8.132150 -0.239463 -14.053707
 5.348930  0.399007 -17.763599
 6.153641 -2.023477 -17.971300
 5.713021 -0.665309 -17.925728
 6.992798 -0.200420 -15.951200
 4.281169 -11.620936 -17.252741
 4.709601 -8.738791 -19.169083
 5.398136 -10.322108 -17.048481
 6.108720 -3.262301 -18.379375
 9.140917 -3.719668 -13.966125
 8.833104 -5.142324 -14.783904
 8.614535 -3.361828 -15.003383
 7.515058 -2.863233 -16.572845
 6.503548 -6.087347 -18.167645
 6.952284 -4.959280 -17.635038
 6.897625 -6.880267 -17.435368
 4.939422  2.533388  1.320006
 6.486908 -2.065501 -2.892999
 8.408794  3.698620 -4.084714
 6.079282 -0.186167  0.196876
 7.636313  2.892930 -0.837967
 9.108035 -1.414438 -4.721618
 8.668790  0.595053 -2.984622
 4.844671 -2.662510 -2.882399
 7.168872 -10.120056 -8.984427
 8.702736 -7.493632 -9.864154
 7.969652 -8.726072 -9.420586
 7.481725 -8.687443 -8.347994
 6.623589 -8.617984 -7.500377
 9.839668 -3.655854 -10.944141
 8.965460 -5.318712 -7.740989
 9.604266 -5.572233 -10.655303
 9.278831 -6.445255 -10.319688
 5.665100 -5.931302 -5.948314
 6.775002 -6.837675 -6.800316
 9.870485 -2.313006 -10.323194
 8.945649  0.047664 -12.109119
 5.544773 -3.475767 -4.151647
 9.158098  1.027305 -10.132771
 9.306714 -2.362290 -5.810189
 1.601877 -12.824991 -18.148575
 6.691749 -11.587373 -9.676868
 5.877461 -13.293077 -8.741925
 6.532510 -12.007683 -10.922599
 6.095657 -13.074874 -10.056907
 5.586333 -12.915967 -14.328974
-7.049152 -10.364835 -2.624890
-7.171010 -12.047900 -3.480883
-6.887368 -18.743599 -11.485230
-8.883602 -12.649410 -13.177198
 3.656878 -14.982223 -6.505880
 0.576467 -16.124981 -4.866922
-0.697739 -15.013776 -4.059542
 1.409541 -18.444145 -8.697399
-4.363852 -15.969890 -5.278968
 4.318343 -16.233225 -9.280213
 4.108565 -15.523930 -14.586142
 5.631639 -10.442063 -7.333251
 3.518411 -8.758503 -6.241511
 2.754169 -10.284753 -5.975450
-2.710557 -10.258495 -2.682729
 1.893434 -13.492844 -5.015081
 0.788395 -13.840729 -4.405169
 3.720294 -4.199162 -4.257273
 1.125796 -2.205833 -20.897865
-3.196151 -0.876186 -1.030265
-8.071789 -6.978839 -17.183264
-8.929348  1.538459 -9.528811
 2.049011 -4.087289 -3.627938
-7.323792  1.076120 -13.251958
-6.328685  0.519334 -18.063322
-2.232690 -9.656960 -20.316090
-6.951567 -3.525743 -19.063688
-5.626979 -5.487014 -19.528641
-5.727066 -7.237019 -19.076672
-5.516521 -2.666228 -20.072437
-1.744948 -4.550558 -21.222122
 5.627168  2.879954 -14.732131
 4.873913  2.896116 -15.805247
 3.178046  4.728146 -14.523302
 3.945625  2.049910 -17.702372
 3.447615  3.307876 -16.576618
 1.699530 -1.594117 -0.339860
 4.036135  5.897966 -0.508388
-5.998291  3.437913 -11.958315
-9.093427  0.057959 -11.800387
-8.929626 -0.718015 -14.037765
-10.217340 -2.642569 -15.345383
-9.200654 -9.223031 -7.157754
-8.673963  1.108421 -5.970904
-1.155908 -9.656450 -3.567212
-5.148307 -2.043180 -1.538323
-1.900370 -8.137528 -2.704281
-8.399450 -2.550341 -4.464849
-9.475074 -6.410284 -6.276464
 6.011392 -4.149601 -18.679939
 5.564962 -4.800945 -19.281420
 7.851083 -5.784212 -16.400948
 9.622584 -2.154677 -6.857564
 7.634106 -4.841477 -16.744747
-2.429062  4.339691 -17.368690
-6.087121 -5.092545 -1.331691
 9.361015 -3.706572 -7.090556
 7.248409 -5.853681 -17.226387
 5.813198 -6.916865 -18.911797
 8.849364 -4.426283 -6.651437
 4.573875 -14.121454 -15.118165
 5.075721 -9.220517 -18.420362
 8.330089 -5.811500 -15.656262
-3.532927  4.414621 -16.501554
 0.086123 -9.107195 -4.525336
 5.374278 -3.667912 -19.267147
 0.631162  0.803643 -19.605600
 7.455325 -6.572548 -16.785686
 9.031511 -3.386362 -6.000466
-4.580973  2.440011 -18.152069
-7.312804 -3.034398 -2.786044
 5.071379 -7.600057 -19.509022
 3.469972 -6.552561 -5.564513
-3.643677 -1.500749 -20.467253
 5.382864 -13.969924 -13.153169
-7.433047 -1.943090 -3.370286
 7.900319 -6.837121 -15.993932
 8.868806 -2.501297 -5.066697
 6.436652 -8.095013 -17.424648
 6.598665 -4.054587 -17.969543
 7.954882 -3.733442 -16.164362
 6.811095 -3.032273 -17.503618
 6.208989 -9.294671 -16.819374
 4.823409 -10.175095 -17.878174
 8.779852 -4.260084 -14.930812
 4.473912 -3.645097 -20.082140
 5.383049 -14.615397 -9.591731
 7.494110 -8.195582 -15.771075
 4.502377 -6.954197 -20.250042
-2.402381 -1.564769 -20.586729
 4.882303 -4.509129 -19.911343
 9.727468 -3.516673 -8.475233
 4.317605 -9.845299 -18.669104
 8.524979 -6.460116 -15.087518
 6.320024 -4.280124 -5.082369
 4.109789 -8.160645 -20.019829
 8.151914 -7.446202 -15.255021
 7.188252 -5.031960 -5.901942
-6.933608  1.185526 -3.943222
-0.293247 -1.386113 -20.563799
-1.689179  6.747542 -10.532483
 8.641273 -1.292641 -3.930871
-3.130218  4.972966 -3.797798
-8.594805 -0.683018 -5.147923
 9.027288 -6.043339 -14.122236
 4.942676 -4.833211 -5.132114
-2.881876  5.352565 -15.368804
-10.662050 -3.999338 -15.211317
 9.671092 -0.606863 -6.564612
 5.535359 -2.643840 -18.852570
 1.537400  0.471549 -19.682402
-5.574342  1.765075 -17.717110
 5.969845 -10.262861 -16.338329
 8.590481 -2.127205 -14.583672
 9.022265 -2.285250 -13.694472
 5.230238 -11.451877 -16.329609
 4.356748 -15.531632 -7.816786
-10.830991 -6.671206 -9.884587
-9.843557 -6.193751 -7.327739
 7.980496 -8.314793 -14.831600
 6.584284 -0.960681 -17.019037
 1.585215  2.803283 -18.033035
 2.659654  0.481227 -19.473379
 7.335385 -9.250283 -15.060420
 7.664611 -1.805050 -15.960687
-5.965293  2.001491 -3.530702
 9.443982 -4.759734 -8.366246
 3.358041 -10.635436 -18.751543
 9.346710  0.285319 -5.019217
 9.135545  1.657730 -4.562664
 2.998981  7.363427 -5.500814
 9.086141 -6.687501 -13.551179
-1.866198  5.284775 -2.805027
 5.048194 -1.593052 -18.971874
 0.244773 -3.076166 -21.161219
 3.294334 -2.221837 -20.387445
 1.634035 -17.364494 -6.570707
 6.084565 -10.830632 -15.647206
 5.146526 -13.484995 -7.536538
 8.102883  2.009195 -11.251020
 5.327728  5.137511 -11.190591
 2.201842 -11.911225 -5.451776
 9.456644 -2.455459 -12.544238
 2.903011 -13.034256 -5.638443
 8.591615  3.365276 -5.968965
 3.524632 -11.804757 -6.162927
 5.757810  6.798113 -6.628842
 9.651616 -4.338103 -12.318488
 2.274806 -15.942000 -5.646080
 2.757463 -14.397611 -5.546916
 1.463290 -15.101155 -4.844926
-6.671775 -5.071056 -18.866171
 6.683771  3.240591 -12.137844
 3.890426 -13.319432 -6.313210
 7.332850  5.360476 -4.079497
 9.403275 -5.658275 -13.021205
 2.394059 -11.408645 -18.702154
 1.191007 -16.807615 -5.597390
 8.243049 -8.435863 -13.973620
 7.643044 -0.715244 -15.304394
 2.509391  3.542043 -16.830975
-3.660282  1.214360 -1.693161
 1.681382 -7.054627 -21.380463
-8.064865  2.383447 -6.341388
 2.033315 -8.583808 -5.627913
 9.794132 -4.326839 -10.136062
 2.706320 -4.430432 -21.163061
-6.602997 -7.779934 -18.164495
 1.089245 -12.341860 -4.762202
 8.673088  2.159950 -3.084069
 4.731925 -0.209858 -18.666887
-6.942279  0.453066 -16.627607
 1.423221 -16.111156 -5.093195
-6.067729 -3.883205 -19.612316
-10.357341 -4.877188 -8.288490
-7.476978 -0.503170 -17.318130
 8.191697  3.510808 -2.666262
 6.003091 -12.543036 -13.414357
-9.715166 -1.685947 -14.721560
 7.660512  0.635577 -1.201100
 3.697476  0.288357 -19.132177
-6.361916 -6.429070 -18.708246
 5.578414 -13.818233 -8.127648
 9.584579 -5.129063 -9.516500
-0.652691 -4.030464 -21.351116
 1.374184 -11.293340 -19.142851
-4.687999 -5.124570 -20.191490
 9.252727 -6.620318 -12.612666
 8.049777  1.498087 -12.219169
 1.457831 -8.487085 -20.830860
 8.091201 -5.740435 -6.961557
 0.213490 -15.112427 -4.330530
 9.315886 -6.579041 -11.491076
 6.180619  4.403630 -0.117063
-8.789840 -0.986932 -15.286283
 7.092689 -10.522430 -13.350986
 9.145121 -6.064014 -9.051119
-1.673251 -6.068039 -21.303427
 3.311244  3.972833 -15.666157
-0.774538 -16.040106 -4.677884
 5.669900 -1.540510 -1.502056
 6.168412  0.309273 -16.783752
 6.024964 -12.749262 -12.621327
 4.068226  2.789325 -16.791513
 8.041850  0.859538 -13.054560
 4.372551 -10.324642 -6.669781
-4.668962  4.399362 -4.636740
 4.485777  1.097029 -18.062693
 6.848128  1.460528  0.349792
 1.892997  4.352485  0.773433
 0.509402 -5.322311 -21.575430
 2.147741  5.269738 -14.565786
 0.763614 -10.534558 -19.764715
 5.170779 -8.205550 -6.665344
 5.583329  0.838172  1.108005
 3.101628  1.707808  1.421785
-5.235283  4.060147 -12.469254
 3.057957  5.488575 -13.324845
 8.837379 -7.706876 -12.306994
-3.812702 -15.257293 -4.499067
-3.665263 -6.823536 -20.600302
 4.129093  4.212032 -14.432060
 6.510639 -11.640972 -12.967566
-0.410778 -6.553544 -21.455246
[...]
POINT_DATA  1003
SCALARS atrophy float 1
LOOKUP_TABLE default
  9.42277
  15.48845
 -4.70104
  13.07042
  4.99051
  0.80436
  7.30030
  15.23615
  16.20332
  10.53529
  11.47590
  15.44762
  11.09921
 -0.44960
  6.83101
  5.95894
  8.69110
  14.63471
  7.15053
  9.80855
  2.60802
  3.85855
  3.54227
  4.33106
  3.50107
  13.32657
  16.93737
  6.72090
  13.53782
  8.15393
  7.60157
  4.25454
  4.73392
  7.13684
  15.63690
  5.86718
  13.62436
  9.27860
  4.20898
  0.83924
 -1.98539
 -4.62211
 -2.03998
  3.55381
  12.50894
  11.36141
  9.56026
  17.30673
  5.23144
  10.05832
  16.60007
  6.66237
  10.57775
  5.16111
  16.43494
  3.33242
 -0.79385
 -2.21316
  8.90997
  9.61775
  8.21766
  11.31191
  8.31873
  4.68900
  17.39057
  15.87167
  15.93529
 -3.40083
  11.02196
  9.79820
  14.87227
  5.45597
  16.62972
  10.90846
  2.22390
  9.59620
  4.95650
  13.15864
  7.77779
  16.32099
  12.53774
  5.26309
  5.89394
  10.64928
  6.84267
  3.28069
  4.70047
  14.68250
  15.22657
  6.60147
  14.51869
  0.83442
  6.79147
  7.02142
  9.11796
  13.34923
  3.87532
 -7.05946
 -1.39049
  1.07808
  6.33804
 -4.49922
  2.86184
 -0.88639
 -4.76334
  1.30125
 -1.62125
  3.04443
  12.11694
 -1.21605
  0.59263
  4.17376
 -0.60655
  1.99893
 -3.11234
  2.37335
 -0.73231
 -0.41054
  4.11378
 -6.62378
  6.26650
  5.10251
  1.41689
 -5.32243
 -2.94998
  3.86949
 -0.17727
  3.41442
  14.02442
  0.32945
 -1.68117
 -3.27240
  2.12098
  6.73555
  0.60871
  1.80508
  7.11608
  3.77610
  5.41013
 -3.32705
  1.75669
 -4.00161
  7.15484
 -4.07850
 -4.41156
 -1.55462
  2.61627
  5.87927
  15.91836
  9.26306
  2.87602
  3.77419
 -6.02516
  12.27949
  14.57536
  5.52271
  12.66004
 -2.84080
  6.78415
  3.55333
 -6.35216
 -0.49869
  6.83194
 -1.22902
  8.07961
  14.44336
 -1.37529
  4.96702
 -2.40058
  4.90797
  0.72690
  0.57726
 -5.25198
  3.11059
  3.04468
  8.38099
  9.56353
  4.96635
  4.35874
  4.33588
  7.82305
  3.41556
  4.55647
  7.39642
  13.12544
 -6.73481
 -1.82949
  5.37893
  4.49263
 -1.54885
  7.70674
  12.31347
  2.43550
  15.64484
  5.44839
  3.75612
 -5.07972
  5.18439
  5.10916
 -3.81069
 -3.86658
  15.88460
  2.93578
  1.69331
 -7.17083
  5.99366
  12.65510
  3.65741
 -5.73139
  11.13744
  8.79292
  8.40583
  2.60100
  5.91963
 -6.55556
 -2.08823
  12.88744
  13.25500
  3.03053
  1.20003
  8.04200
  3.50072
 -7.29699
  6.06715
  6.49770
  14.42214
  11.32789
  6.56311
  3.92826
  6.96790
  2.01936
 -2.35446
  5.19366
 -6.32599
  4.97263
 -3.29533
  14.83732
  8.56723
 -4.49632
  6.45759
  5.73670
  17.12733
  6.61341
  3.59502
  16.59872
  6.23119
  0.98560
 -2.26768
 -2.56516
  11.58124
  6.52129
  6.60817
  12.28550
  3.63451
 -1.08913
  10.35989
  16.41835
  1.39307
  4.51886
  3.43650
 -6.36491
 -6.57170
  5.52141
 -5.38337
  4.71818
  4.37870
  5.50643
 -2.83604
 -0.65259
 -0.90495
 -3.58037
  2.64904
  3.40981
  4.68882
  12.28711
 -4.09401
  7.17810
 -3.93236
  5.40405
  4.82678
  13.90130
 -5.32251
  1.27694
  6.01055
  12.65900
  16.01140
  0.20640
  16.84231
 -4.82328
  3.65748
  15.80487
  6.15314
  11.38772
  2.98624
 -4.21266
  3.26446
 -5.29701
  10.61469
  7.15400
  15.76963
  6.07589
  10.00583
  3.59623
 -4.39112
  1.78655
  11.86550
  0.83697
 -7.25029
 -2.00802
 -2.62497
  11.16690
  2.61741
  3.73514
  0.82060
 -0.41498
  8.81825
 -2.17763
 -2.28197
  6.23995
  3.27474
  4.98970
  5.23401
 -2.62001
  0.36342
  2.47588
 -2.62477
  8.12254
  0.87112
  0.04771
 -1.08134
  9.14727
  9.90666
 -0.90068
  7.23700
 -0.59410
  6.62837
 -3.86872
  7.47769
  14.97195
  6.23032
  13.16789
  7.26500
  6.33965
  6.32356
  3.64126
 -5.44811
  17.20530
  15.39798
  14.48055
  14.00756
  5.08287
  11.08233
 -6.29633
  3.73161
  2.72563
  4.59489
  2.22633
  2.63137
  16.73310
 -5.00945
  14.12358
  11.00854
 -1.08647
  5.86216
  11.43909
  6.30199
  15.25741
  2.88237
  8.75150
  0.06682
  5.31283
  16.20830
  9.85191
  8.70445
  3.00888
 -1.33223
  16.79702
  1.64052
  6.04755
  12.87368
  5.79696
  10.99398
  8.10441
  5.79851
  5.31775
  14.91103
  11.03303
  10.69532
  11.29951
 -3.37620
  3.09511
 -5.49527
 -5.19851
  12.60050
 -1.36300
  6.41924
  3.58261
  2.42528
  4.84660
  3.17925
  12.22093
  0.87657
  6.05864
  9.82993
  3.42471
  6.34085
 -0.15542
  14.99899
  7.18651
  13.02871
 -3.30003
  6.64248
  7.18236
  15.37956
  14.45358
  0.06574
  4.51337
  5.17830
 -0.03418
  5.73081
  10.85738
  10.24446
  12.51931
  7.00018
  9.11873
 -4.52142
  14.91106
  16.00154
  13.03457
  7.32925
  7.11916
  5.08746
 -7.04019
  16.53776
  9.06316
  16.18328
 -5.30282
  4.32975
  14.41514
  12.71371
  14.06292
 -1.76679
  5.17884
  5.43327
  2.67605
  8.89287
  14.50601
  3.82027
  13.56355
 -5.23278
  11.28663
 -2.52945
  3.69463
  6.08476
  11.22423
 -4.24353
  3.33729
  7.43857
  5.69897
  2.55900
  1.48979
  11.34619
 -4.84983
  3.88383
  3.49677
  8.57407
  16.65377
  8.09324
 -5.55661
  7.04238
  7.15192
 -5.61227
  6.26826
 -3.21316
  1.31650
 -0.66836
 -6.12959
 -1.73302
 -5.10660
 -6.00013
 -2.87045
  1.15302
  5.71427
  5.95762
  4.78297
 -2.57089
  3.88570
  3.42322
 -0.09446
 -6.01167
 -5.09434
 -4.99437
  6.88929
  5.15779
  5.47309
  2.48808
  4.50523
  4.12393
  1.30019
  2.72541
  9.30836
 -1.90579
  1.49734
 -4.04613
  11.33403
  4.65190
  2.33936
 -3.48203
 -2.52075
  0.33951
  3.20381
  4.78343
  6.43816
  3.37144
  2.78642
  6.66949
  2.57206
  0.57203
  3.59503
 -6.84684
  0.76226
 -5.61191
 -6.68618
  1.80269
 -5.66235
  5.81200
  0.19522
 -4.66176
  0.80171
 -0.33497
  0.76290
 -4.05695
 -4.73610
 -0.63240
 -0.26401
  6.83001
  1.16116
 -0.18383
  4.86912
 -3.72592
 -5.10483
 -0.82943
  1.11343
 -2.01079
 -3.95515
  2.90800
  3.39404
  7.31209
 -6.04595
  5.39549
 -3.40151
  0.16497
  0.01020
  5.82491
  3.78519
  1.04227
  5.72978
 -5.56828
 -6.28376
 -6.71606
  5.10847
  6.36899
  4.32084
 -4.78694
 -5.16109
 -3.05633
 -6.28608
  7.21228
  3.48872
 -1.12055
  6.31579
  5.46667
  2.54796
  5.11660
 -7.04909
 -6.70837
 -5.91108
  5.75168
 -4.85954
  2.38562
  1.10333
 -5.81006
  5.02203
 -0.99878
 -2.56142
 -3.81111
 -1.49076
  4.19056
 -5.17852
  4.49426
 -5.79063
  5.92145
 -2.03351
  5.28427
 -0.04951
  1.17210
  2.82400
 -4.60270
 -5.14125
  4.98828
 -0.88383
  6.80972
  1.48649
 -1.15027
  0.76912
 -5.18981
  2.16102
  2.32880
 -2.39215
  4.18038
  7.32347
 -1.15239
 -6.65849
  2.60065
 -2.67552
 -5.05995
 -2.28724
  1.95360
  3.09264
  1.87440
  5.87471
  7.19790
 -5.38965
 -0.90770
 -1.42170
 -1.05834
 -0.69154
 -5.47715
 -4.97111
 -0.76970
 -6.01785
  2.76446
 -6.81418
  4.37339
 -2.01694
 -1.20416
  0.41949
 -5.84874
  6.32831
  6.42261
 -7.31082
  1.07777
 -7.03315
  5.37908
  0.04797
  4.43797
 -2.62076
  2.44690
 -2.15359
  2.90585
  0.44726
  6.58002
  3.27731
  0.82637
  1.48621
 -4.77164
  5.94788
  2.20270
 -3.38102
  2.59363
 -4.71451
  1.64134
  3.40963
 -3.42544
  2.64934
 -4.52434
 -3.71551
 -7.35956
 -0.23456
 -3.89871
 -4.56706
 -4.30223
  5.77565
 -4.07591
 -4.39121
 -6.39924
  1.80057
 -1.47380
  2.92814
 -7.26439
 -5.66465
 -0.36681
 -2.84005
 -5.72804
 -0.52078
  2.31751
  3.97541
 -6.88148
 -3.83776
  6.50473
 -4.68381
 -3.81454
  2.93882
  3.75207
 -0.52857
 -5.37781
 -7.15373
  3.47416
  3.07082
 -6.63133
  5.05983
  5.22063
 -5.87626
 -0.87496
 -5.63281
  6.24624
 -1.39245
  6.24731
 -4.09097
 -6.32384
 -5.18548
  0.09606
  2.62710
  6.20366
  5.66552
 -0.82052
 -6.70762
 -1.66971
  6.53443
 -1.96801
  2.88209
  0.11169
  6.04473
 -2.63820
 -1.11157
  7.00052
 -1.29887
 -5.61762
  5.24483
  5.01401
 -5.58743
  6.06854
  3.73665
  1.94297
 -1.48615
  1.09278
  3.40854
  0.22218
 -0.48237
 -1.03950
  2.62161
 -7.17647
 -1.90091
 -6.37065
  6.03586
 -0.02809
  6.09433
  2.48342
 -7.23043
  3.35781
 -3.05572
  2.66709
 -0.74287
  5.77414
 -4.46354
  1.80461
  4.06177
  5.11525
  1.10866
 -3.02770
  1.64539
  7.16921
  0.90088
 -3.83173
 -3.79291
 -7.14747
  6.48538
  1.74936
 -3.94395
  5.33317
 -1.89937
  1.80204
 -4.34231
 -7.44832
  4.57039
 -3.39542
 -5.16509
 -0.23269
  0.94573
 -3.10744
 -2.18427
 -7.26981
  3.72748
 -3.13058
 -0.90378
 -1.62232
  7.37406
 -5.20573
 -4.51374
  4.07215
  3.19900
 -6.51978
 -6.51054
  5.84481
 -3.42953
 -2.06707
  2.94631
 -2.86847
  5.08793
 -7.33439
  3.61989
 -2.09573
  4.32017
 -1.72618
  3.43503
  3.18506
  5.10526
 -3.90996
 -6.12737
 -6.05135
 -0.72449
  7.33813
  3.33269
  4.21627
 -4.88285
  1.19261
  4.38733
  1.16779
  3.45048
  1.57547
  4.69197
 -3.77677
  5.27850
  6.51512
  1.68024
  6.74438
  0.07471
  4.52808
 -7.23123
 -4.44482
  2.43448
 -2.76524
 -3.61534
 -1.09723
 -3.33989
 -5.19688
 -7.21763
 -2.80112
 -3.17631
 -3.23301
  2.53307
  3.41180
 -4.42681
 -3.47536
 -0.68201
  4.58015
  3.59905
  5.74652
 -2.99287
 -7.03890
 -4.03335
  0.35574
 -0.63331
  1.67564
  1.28130
  2.15705
  0.96065
 -1.07289
 -4.58374
 -0.42880
 -4.22735
  5.39144
  6.58709
  4.45551
  5.15513
 -2.66044
 -3.27049
 -2.91846
  0.42901
  6.89784
  3.41942
  1.90957
  6.65684
 -1.79684
  4.21305
  1.53593
  6.37773
  5.76073
  1.47464
  3.06299
 -1.34900
  4.58138
  0.45705
 -5.33783
  0.08285
 -1.48804
 -0.06820
 -2.98643
 -5.43724
 -5.80830
  5.28065
 -5.19348
 -1.42277
 -5.82539
 -2.58788
  0.77535
  5.10321
  4.09577
  0.37983
  4.02564
 -5.57847
 -6.98748
  1.65197
 -4.16039
 -1.33688
  4.56939
 -2.07473
 -1.01810
 -6.70403
  2.45112
  4.17878
  6.75549
  2.79718
  3.04324
  0.32273
  3.06935
  5.91008
  6.10933
 -3.24649
  7.01148
 -2.24226
 -2.03230
 -2.03851
 -6.23399
 -5.70851
 -2.92063
 -0.26125
  1.33144
 -1.78551
 -3.71451
 -0.83076
 -4.36009
 -7.20746
 -4.90873
  0.88469
 -4.70946
  7.28927
  0.33988
 -3.85630
  0.18354
  3.70662
 -5.70024
 -0.63355
  6.52052
 -4.53525
 -5.51104
  1.89921
 -3.94142
  2.48268
 -4.12248
 -4.08110
 -4.42446
 -6.60728
  4.36207
  2.49232
  6.35696
 -7.42652
  2.32328
 -2.26379
  6.70326
 -4.10074
 -2.08268
  1.60349
  6.32765
 -3.44502
  1.41643
 -0.68737
  6.64326
  6.83472
  5.87114
  6.67892
 -3.59458
 -7.37149
  4.73032
 -2.90609
  2.47029
  14.55746
  17.32815
  11.53445
  7.44198
 -4.27545
 -1.10674
  16.57337
  6.58671
  9.12852
  6.81183
  6.93995
  3.93826
  17.29014
  17.39709
  5.68860
  10.55138
 -1.08339
  5.08820
  7.01281
  10.35723
 -5.36413
  2.50670
  0.47423
 -1.53720
 -3.84488
  0.21922
 -1.76623
