# vtk DataFile Version 3.0
Surface Data
ASCII
DATASET POLYDATA

POINTS  1003 float
 9.453386 -2.973028 -11.614549
 8.590919 -7.584584 -11.178791
 3.576199 -7.372859 -21.054052
 6.931362 -2.056891 -16.837986
 4.380364  0.003190  0.560536
 0.250647 -18.480911 -11.812924
 2.427458 -5.136175 -4.165982
 7.564259 -9.620660 -12.831081
 7.367760 -9.964099 -10.221103
 7.147156 -10.276069 -14.418833
 9.368300 -5.278705 -11.611135
 8.620644 -7.500065 -13.307749
 9.096198 -4.809333 -13.494167
 2.031193 -10.105110 -20.465187
 4.292584 -11.477771 -18.788443
 5.789227 -9.517960 -18.157803
 6.816444  5.004730 -2.437546
 7.363673 -0.973120 -2.777903
 9.061057  1.514279 -6.428680
 6.681667 -2.898147 -4.386068
 9.505013 -1.213851 -8.905684
-2.949701 -11.037900 -19.252129
 6.287702 -11.690408 -8.174142
 2.966484 -16.562290 -6.834731
-1.675607 -11.486961 -3.317362
 7.007559 -10.860022 -10.790235
 6.986769 -10.748564 -12.521847
 6.444710 -12.024111 -11.987727
 8.003702 -8.814098 -11.969830
 5.580754 -12.836511 -15.475264
 7.708490 -9.077312 -14.431943
 6.895457 -10.427606 -15.310954
 6.861889 -9.709354 -16.101950
 6.425439 -11.647968 -14.880606
 6.522604 -11.713721 -13.872203
 9.277394 -3.706471 -12.813234
 8.454633 -7.219860 -14.270741
 7.672355 -9.369477 -13.711616
 8.154279 -8.530747 -13.050341
 1.395829 -4.153464 -21.546183
 3.928045 -9.700749 -20.086996
 2.922935 -10.610149 -20.038021
 3.070073 -8.911802 -20.770153
 1.151751 -9.888657 -20.599636
 6.449777  2.650204 -13.767936
 9.071619 -1.116865 -12.265128
 7.115474 -1.204221 -16.169987
 8.104497 -1.428728 -14.848535
 8.023798 -2.592990 -15.534463
 8.483738  0.181258 -12.934358
 8.618083 -0.990483 -13.528066
 8.083922 -0.246813 -14.033442
 5.160862  0.194855 -17.439850
 6.061312 -2.133643 -17.859138
 5.555915 -0.824672 -17.659010
 6.885220 -0.274112 -15.812905
 4.588606 -12.266246 -17.716593
 4.824847 -8.923487 -19.707111
 5.647096 -10.835390 -17.532709
 6.082189 -3.342644 -18.404440
 8.927125 -3.757087 -13.909329
 8.631179 -5.133192 -14.665117
 8.454419 -3.387461 -14.944342
 7.427217 -2.905864 -16.530218
 6.452953 -6.029073 -18.179436
 6.892583 -4.950786 -17.597637
 6.840855 -6.833502 -17.378901
 4.844812  2.820781  0.828977
 6.376714 -1.957523 -3.192868
 8.122921  3.369871 -4.175154
 5.847539 -0.306133 -0.674735
 7.239846  2.629592 -1.480957
 8.884522 -1.291383 -4.717898
 8.376102  0.618973 -3.023516
 4.923731 -2.574925 -3.116499
 7.085885 -10.116488 -9.047473
 8.446253 -7.402040 -9.973512
 7.771965 -8.649974 -9.544181
 7.327649 -8.635632 -8.462613
 6.586673 -8.583471 -7.518552
 9.534943 -3.701421 -10.933613
 8.651272 -5.240567 -7.948393
 9.324881 -5.552776 -10.669610
 9.004600 -6.382868 -10.375319
 5.692114 -5.795893 -5.969347
 6.682648 -6.740109 -6.909813
 9.546360 -2.358037 -10.323347
 8.851816  0.051947 -12.117164
 5.567208 -3.319319 -4.310416
 9.008748  1.066999 -10.145039
 9.029788 -2.272336 -5.903491
 1.870817 -13.284904 -18.438047
 6.674647 -11.656604 -9.698414
 5.960753 -13.470830 -8.686616
 6.500219 -12.081726 -10.918039
 6.105248 -13.220025 -10.000757
 5.717935 -13.280243 -14.149645
-6.497580 -10.249612 -3.295096
-6.727348 -11.776223 -4.129497
-6.388892 -18.330246 -11.435087
-9.384084 -12.986859 -13.210142
 3.890025 -15.075610 -6.384583
 0.855584 -16.179838 -4.729877
-0.649626 -15.064555 -3.964810
 1.121786 -18.101980 -8.820333
-3.995651 -16.094324 -5.048221
 4.230575 -16.225096 -9.171646
 4.174684 -15.700259 -13.994620
 5.803584 -10.511953 -7.135751
 3.844249 -8.715644 -5.769861
 3.160069 -10.299816 -5.407035
-2.829448 -10.159616 -2.739353
 2.288262 -13.557380 -4.690115
 1.037031 -13.882041 -4.181066
 3.921489 -4.042617 -4.157698
 1.138237 -2.214244 -21.101398
-3.491227 -0.466322 -0.806266
-8.211273 -6.996700 -17.432261
-8.940823  1.455789 -9.679782
 2.335497 -3.897938 -3.305373
-7.697989  1.273180 -13.481068
-6.218292  0.451061 -17.482006
-2.028856 -9.737391 -20.007885
-6.899518 -3.375913 -18.936253
-5.623471 -5.163215 -19.760761
-5.660701 -6.979496 -19.174860
-5.429102 -2.419867 -20.130978
-1.653622 -4.448112 -21.635822
 5.626041  2.899537 -14.774849
 4.805245  2.863807 -15.864736
 3.221843  5.046440 -14.735187
 3.801670  1.854108 -17.545305
 3.369930  3.319651 -16.731777
 1.794574 -1.193634 -0.063314
 4.173539  6.738543 -0.288039
-6.338237  3.916112 -12.036306
-9.361330 -0.138137 -11.989355
-8.787639 -0.768654 -14.064872
-9.397504 -2.738415 -15.050687
-9.556231 -9.201538 -6.920525
-8.260983  1.294538 -6.608319
-1.230391 -9.537317 -3.183049
-5.006063 -2.004655 -1.739832
-1.921647 -7.942764 -2.361447
-8.063499 -2.635500 -4.608255
-9.564075 -6.379220 -5.943871
 6.009950 -4.181448 -18.769735
 5.561816 -4.768467 -19.413113
 7.710572 -5.731295 -16.221611
 9.295638 -2.107191 -6.925328
 7.523169 -4.832279 -16.632757
-2.329993  4.048469 -17.283470
-5.463262 -5.218638 -1.619160
 9.039706 -3.643897 -7.252512
 7.152531 -5.802571 -17.098566
 5.786757 -6.849536 -19.085304
 8.552864 -4.334604 -6.888918
 4.744442 -14.511152 -14.797413
 5.223363 -9.542812 -19.002460
 8.157701 -5.761799 -15.482445
-3.491507  4.152964 -16.454025
 0.225745 -8.978739 -3.895595
 5.369381 -3.712122 -19.337452
 0.525668  0.819151 -19.560217
 7.351535 -6.501085 -16.622280
 8.750869 -3.288219 -6.190891
-4.551484  2.315431 -17.819887
-6.750897 -3.350957 -3.044484
 5.088000 -7.570026 -19.843683
 3.699732 -6.413108 -5.233974
-3.671211 -1.165593 -20.851976
 5.407307 -14.209239 -12.810004
-7.013809 -2.122135 -3.718672
 7.781394 -6.762833 -15.836805
 8.634379 -2.372080 -5.180817
 6.474448 -8.179910 -17.587744
 6.572345 -4.097008 -18.002029
 7.838058 -3.754960 -16.095257
 6.751217 -3.104062 -17.483070
 6.371044 -9.585942 -17.146194
 5.061789 -10.698973 -18.510588
 8.587512 -4.276852 -14.839400
 4.472845 -3.671925 -20.122335
 5.386044 -14.764335 -9.483313
 7.485790 -8.183242 -15.765294
 4.515084 -6.856616 -20.525358
-2.522191 -1.174921 -21.251949
 4.883804 -4.475975 -20.039049
 9.387347 -3.499874 -8.553737
 4.546463 -10.285790 -19.361656
 8.355048 -6.389974 -14.938335
 6.268507 -4.114102 -5.256673
 4.215003 -8.209910 -20.458633
 8.040817 -7.353393 -15.143882
 7.043894 -4.891068 -6.108783
-6.515540  1.148603 -4.727110
-0.407136 -1.150827 -21.112715
-1.654518  6.615194 -10.465219
 8.433088 -1.149136 -3.941893
-2.587006  4.211284 -4.108167
-8.322482 -0.412638 -5.661611
 8.823975 -6.008447 -14.015223
 5.038171 -4.671497 -5.131313
-2.794313  4.969544 -15.357803
-9.818781 -4.189892 -14.939791
 9.327482 -0.559876 -6.582023
 5.488126 -2.749836 -18.802008
 1.462368  0.385333 -19.467583
-5.552329  1.667332 -17.284948
 6.211294 -10.702301 -16.700092
 8.463768 -2.150287 -14.561318
 8.849617 -2.320846 -13.672874
 5.516313 -12.024488 -16.644392
 4.423369 -15.624978 -7.766183
-10.558969 -6.790730 -9.941339
-10.076001 -6.051400 -7.125329
 7.922489 -8.229281 -14.808123
 6.453316 -1.060045 -16.852037
 1.538252  2.703956 -18.029179
 2.574421  0.285085 -19.074293
 7.393732 -9.295753 -15.155482
 7.570610 -1.835433 -15.906461
-5.605917  1.722973 -4.286008
 9.111496 -4.708998 -8.508294
 3.680494 -11.161571 -19.432896
 9.040112  0.346538 -5.000747
 8.797110  1.637979 -4.594642
 2.817107  8.357466 -5.351248
 8.891034 -6.627593 -13.467175
-1.417005  4.588864 -2.937751
 4.949140 -1.741436 -18.746597
 0.269722 -3.048550 -21.582027
 3.276062 -2.326978 -20.235992
 1.704123 -17.321693 -6.607571
 6.322309 -11.249762 -15.885047
 5.337884 -13.656407 -7.404079
 8.129567  2.083553 -11.264810
 5.476634  5.516688 -11.325545
 2.633145 -11.969247 -4.950245
 9.219284 -2.505703 -12.524695
 3.340818 -13.139456 -5.249348
 8.361154  3.193071 -6.018539
 3.945850 -11.905937 -5.710916
 5.762211  6.489766 -6.745961
 9.386032 -4.382474 -12.278480
 2.530216 -15.971411 -5.564951
 3.120458 -14.483546 -5.310177
 1.778321 -15.141215 -4.679762
-6.745064 -4.848278 -19.035990
 6.790655  3.418926 -12.172097
 4.249625 -13.454633 -6.019705
 7.182070  4.882440 -4.085565
 9.172613 -5.653724 -12.952312
 2.757552 -11.934442 -19.267445
 1.417620 -16.835096 -5.536002
 8.143824 -8.317175 -13.959950
 7.562940 -0.742327 -15.237711
 2.463079  3.548539 -16.971161
-3.879115  1.253513 -1.776531
 1.867813 -7.153295 -21.506689
-7.482741  2.298304 -6.847278
 2.372170 -8.491226 -5.002882
 9.482692 -4.338294 -10.155955
 2.746326 -4.447613 -21.246832
-6.603683 -7.671480 -18.357100
 1.408847 -12.370649 -4.352889
 8.318141  2.018894 -3.237898
 4.571961 -0.416534 -18.295284
-6.932135  0.457757 -16.253965
 1.715674 -16.135529 -4.996495
-6.045240 -3.625226 -19.723507
-10.633941 -4.637613 -8.336365
-7.272798 -0.522850 -16.754595
 7.855599  3.195791 -2.918183
 6.058576 -12.797740 -13.272914
-9.160470 -1.767323 -14.559240
 7.292330  0.545504 -1.702366
 3.568660  0.061462 -18.700489
-6.444041 -6.192949 -18.962854
 5.722520 -14.039630 -8.057775
 9.270565 -5.097272 -9.589683
-0.583067 -4.023837 -21.792971
 1.734543 -11.685048 -19.585537
-4.618538 -4.748526 -20.482231
 9.039715 -6.568751 -12.562414
 8.086832  1.544609 -12.228079
 1.768233 -8.666080 -21.076468
 7.846879 -5.636405 -7.194332
 0.415740 -15.159021 -4.192276
 9.076612 -6.526072 -11.485085
 6.024676  4.526484 -0.552812
-8.459904 -0.978187 -15.082156
 7.085262 -10.546370 -13.411796
 8.838309 -5.993294 -9.187408
-1.491641 -6.088923 -21.309126
 3.284296  4.144377 -15.892711
-0.561927 -16.151995 -4.485331
 5.598963 -1.548682 -2.025481
 6.014385  0.160737 -16.557529
 6.032771 -12.940516 -12.474057
 3.958651  2.699915 -16.829926
 8.049623  0.876825 -13.050061
 4.697372 -10.384604 -6.269878
-4.012175  3.778431 -5.044878
 4.314145  0.867957 -17.745123
 6.472380  1.287801 -0.556302
 2.064389  5.049409  1.333518
 0.634692 -5.443064 -21.694117
 2.247908  5.410140 -14.697173
 1.160901 -10.837173 -20.128616
 5.313577 -8.157094 -6.480463
 5.404604  0.809680  0.240556
 3.056961  2.402983  1.626935
-5.623390  4.500086 -12.598807
 3.181723  5.822413 -13.490479
 8.645528 -7.604832 -12.299601
-3.569702 -15.199602 -4.463161
-3.464188 -6.589509 -20.442490
 4.154621  4.536357 -14.655356
 6.521441 -11.770605 -12.949251
-0.205159 -6.701100 -21.429140
[...]
POINT_DATA  1003
SCALARS atrophy float 1
LOOKUP_TABLE default
  18.42873
  5.93108
 -5.59089
  19.19583
  5.39965
  3.88823
 -1.14337
  14.80323
  18.59534
  10.47532
  16.62561
  13.61616
  19.27929
 -6.89619
  5.16178
  6.56028
  16.60533
  8.68145
  10.27628
  4.97028
  11.66326
 -2.96675
  7.63332
 -4.69442
  2.79405
  17.82310
  7.28872
  13.26615
  13.87878
  13.37626
  15.13488
  10.29231
  12.72019
  16.99672
  13.98524
  12.76684
  10.38309
  10.35475
  17.13018
 -3.10038
 -3.54815
 -3.57345
  2.42965
  3.04585
  6.09218
  17.55440
  8.28831
  11.52358
  17.78278
  6.60002
  8.29123
  7.94903
  13.15107
  9.77780
  13.81351
  8.07861
 -4.65644
  5.28632
  12.06022
  11.86287
  7.22421
  13.66208
  5.70342
  4.89210
  14.97142
  12.35566
  6.72986
  3.26125
  14.68151
  17.21002
  17.20904
  7.56059
  9.57561
  11.05212
  2.10655
  5.88697
  15.06718
  13.01623
  9.68635
  7.86714
  8.54185
  12.17263
  17.86263
  5.32845
  7.17906
  14.87478
  18.07860
  8.87947
  6.99618
  8.03970
  12.17732
 -3.05394
  8.56391
  14.94865
  18.24524
  7.16381
  7.27679
  6.75836
  4.56988
  0.73436
  1.33377
 -0.05231
 -0.43164
 -7.24625
  5.61328
  4.13943
  5.18277
 -5.55306
  3.06160
  0.70536
 -2.62473
  6.17147
 -5.17170
  4.99245
 -2.25788
  6.48224
 -0.47517
  4.32739
  2.31655
  6.81030
  3.30200
 -2.39047
  0.87749
 -1.89165
 -4.80995
  3.06140
 -7.33933
 -0.49155
  13.12936
 -1.19738
 -0.32055
  3.88623
 -5.46944
 -2.48811
 -3.21222
 -2.90406
  5.63333
  5.42878
  5.43364
  4.99363
  1.05255
 -0.05990
  1.95305
 -3.99288
 -0.49134
 -4.70072
  6.44570
  11.25746
  9.41449
  17.16286
  12.85301
 -2.27581
 -0.21217
  11.75127
  17.67894
  15.68782
  12.06018
 -4.49394
  5.34727
  8.00396
  4.56464
  0.14959
  3.17766
 -1.56233
  5.07342
  11.74846
  2.33471
 -1.10263
  0.05708
 -2.32287
 -5.69619
  4.51386
 -3.38822
  5.62891
  15.32359
  4.92647
  5.84233
  16.59207
  13.68186
  17.01630
  3.56689
  17.21817
  6.25158
  2.25107
  17.76329
 -4.15926
  2.95807
  4.20667
  16.00624
  7.34905
  5.14455
  14.30558
 -6.92127
  12.29173
  10.05971
  6.58370
 -4.92188
 -3.70113
  6.48030
 -0.37533
  2.57515
  15.14614
  14.43735
  1.16737
 -2.08518
  11.01509
  16.51529
  5.41674
  0.21936
  17.53942
  8.20474
  17.75516
 -4.07123
 -6.09864
  3.99613
  2.66330
  5.85720
  8.04997
  4.63535
  6.68773
  7.60906
  4.71247
 -3.55012
  6.50929
 -6.89591
  18.62044
  6.04293
  2.27520
  19.33060
  0.18661
  2.95898
 -5.73085
  6.56935
 -3.97901
  12.20258
 -3.26907
  9.09163
  4.32187
  6.86963
  11.59269
  1.31398
  10.94207
  6.39804
  12.43314
  7.61647
  0.55301
 -5.33390
  1.68043
 -1.87490
  15.23343
 -1.70621
  11.27033
  15.03361
  0.85363
  1.24659
  8.73468
  10.53737
  7.07839
 -1.67406
  4.74396
 -3.92057
  2.43491
  11.75981
 -2.83557
  1.94206
  7.18925
  16.36466
  1.18081
  0.58063
  5.60902
 -5.65633
 -4.26152
  6.27669
  7.32071
  13.51912
  2.00974
  7.96698
  3.19991
 -1.96318
 -2.00173
  18.11432
  1.76499
 -2.01099
  1.03637
  12.88427
  14.98451
  1.80283
  11.17830
  1.39716
  7.63564
  15.94386
 -5.77755
  16.24272
  5.23946
 -0.21319
  3.92352
  1.65885
  6.45655
  5.53670
  17.00177
  1.86871
  11.28435
 -3.44247
 -3.76063
  5.45629
  7.39369
 -4.41503
  0.34190
  2.28340
 -5.87604
  13.90772
  11.78029
 -2.39474
  3.03045
 -5.07234
  9.56049
  1.27607
 -2.76318
 -0.71244
  10.12579
  3.41993
  14.41041
 -6.15269
  0.95833
  0.00086
  5.32889
  7.07070
 -5.69507
  2.82266
  5.62379
  13.40407
  15.63456
  0.05164
  6.76198
  2.52829
  12.00327
  7.39457
  9.71391
  7.29133
 -4.72193
  18.87766
 -3.09330
 -4.51400
  4.72038
  18.11186
  5.83823
  7.43050
  14.22063
  18.90196
  11.88749
  4.39920
  19.30041
 -5.24654
 -4.61583
  0.50752
 -1.93605
  17.44202
  12.14083
  10.40801
  5.00350
  15.99078
  6.40357
 -4.43958
  15.67023
  6.29522
 -4.47264
  19.11418
  8.08584
  7.32948
  4.45407
  9.93254
  6.54353
  16.08031
  18.65427
 -0.38310
  6.79888
  19.04260
  5.04208
 -4.01498
  15.80297
  11.10767
  5.40094
  7.16036
  11.47346
  15.95460
  15.36357
  17.76411
  7.92587
  15.47792
 -3.16010
  17.83149
 -3.61490
 -1.83205
  8.12319
 -0.01916
  11.40944
  3.27155
 -1.55644
  11.52472
  18.51224
  6.73667
 -6.30181
  7.29106
  14.58946
  15.28325
  5.62458
 -1.69192
  5.64621
  2.28336
  13.84163
 -1.66271
  2.78989
  12.96358
  10.53752
  15.81137
 -4.04465
 -0.46170
  3.72946
 -2.62567
  7.04438
  10.07722
  3.96474
  14.32471
 -1.77593
  15.77501
  4.91466
  10.27462
  19.02147
  11.12227
  2.26539
  17.43093
 -1.90035
  5.00728
  19.30733
  8.21009
  10.62355
  2.34898
 -3.89485
  7.52280
  15.35911
  12.65801
 -3.39285
  5.22710
  14.18471
  4.00597
  8.84338
  16.06345
 -4.57072
  4.91992
  1.00350
  16.74616
  6.17042
  13.02007
 -3.64646
  12.88673
  5.52490
  7.36803
  16.37928
  12.89330
  17.95938
 -6.29619
  13.99872
 -5.70673
  10.85426
  6.72753
  13.23019
  15.99109
  11.22486
  0.64688
 -4.60806
 -5.00179
 -0.69648
  0.19089
  0.45449
 -0.22062
  6.15011
 -3.92033
 -2.67305
  3.83224
  1.45731
 -2.43446
  1.08670
 -3.65393
 -5.43020
  6.00419
 -1.36304
  0.56915
 -2.48284
  6.82407
 -2.40833
  4.85902
  2.95093
 -7.35590
 -2.10363
 -5.22546
  5.84991
 -5.65949
  1.31131
 -2.41557
  0.63151
  13.12495
  5.99029
 -1.47589
 -3.56425
  17.77770
 -2.92563
  0.01976
  5.49335
 -5.99166
  1.35941
  16.10176
 -4.18248
  2.69281
 -3.18311
  6.43254
 -7.01498
  2.48398
  1.61321
  1.07730
 -0.27126
 -2.69039
  2.92573
  3.90702
  4.19830
 -2.11281
  1.46211
 -6.30988
 -5.05344
 -6.76319
 -3.53137
 -0.31092
 -3.05328
  5.26454
 -4.95354
  1.70100
 -3.35170
  5.77210
 -4.58124
 -5.09996
 -6.85320
 -1.66457
 -3.84695
 -4.31990
 -4.83221
 -5.31724
  1.06662
 -4.51865
 -4.11123
 -6.46820
  0.77838
  6.18844
 -4.37408
 -3.18578
 -0.52230
 -5.37049
 -2.22469
  3.12087
 -2.10921
 -2.69145
  4.07948
 -5.69331
 -4.16630
 -3.77245
 -6.09821
 -4.94032
 -0.86070
 -2.14727
 -6.19326
 -6.08438
 -5.99064
 -6.82558
 -1.88793
 -1.09030
  2.01746
 -4.43578
  7.17106
 -4.97980
  7.87500
  5.33200
 -3.55084
 -5.45625
 -0.63059
 -4.56665
  3.36015
  0.34505
  0.85992
  6.67742
 -6.00565
 -4.83511
 -3.30568
  6.96697
 -3.34098
  6.06025
  0.15783
  3.45425
  4.46726
  7.09314
  0.33055
 -5.05697
 -3.24805
  7.37604
  7.04971
  1.59305
  5.30363
 -4.43640
  0.60187
 -7.27867
 -4.21029
  5.92675
 -6.21962
  6.55933
  1.60314
  6.51732
 -2.37096
 -5.22604
  5.01417
 -7.10938
  3.50911
  0.33940
 -6.99703
 -2.42542
 -2.54390
  3.77003
  3.65757
  5.03875
  1.12276
  3.25519
  3.37785
  6.95170
  7.39128
 -2.71380
 -5.34618
  2.19760
  0.64220
  0.72020
 -1.00917
 -4.16810
 -4.44131
  6.46374
 -3.03893
  5.02812
  6.31279
 -5.90547
  4.00276
  4.67410
 -6.94063
  5.59408
 -2.14038
  6.28979
 -7.41907
 -7.33098
  4.58697
  6.93067
  2.45878
 -2.88240
 -5.11970
  6.11514
 -0.84498
 -4.91830
 -1.71167
 -2.31330
 -1.34483
  3.73625
 -2.25725
 -4.22751
  5.91071
  6.44134
  2.29399
  4.90116
 -2.94850
 -0.41605
  5.65529
 -6.71675
  5.85744
  1.65827
  3.12318
  3.62236
  4.23402
  7.12626
  5.91660
  2.41071
  6.23438
 -4.95587
  4.53449
  4.58030
 -2.97038
 -0.02255
 -7.25276
  3.84844
  0.69401
 -1.65781
 -3.63250
 -1.07221
 -0.29000
  1.92189
 -5.84439
  7.27777
 -5.15220
  0.46441
  5.10128
  5.09188
  2.93150
 -3.55777
  1.60931
  4.16196
 -4.22036
  5.61367
  1.98747
 -2.64227
 -4.32354
 -2.32603
 -1.38424
 -5.80563
 -5.08293
 -5.39751
  1.84107
 -3.68212
  5.53581
  2.04595
 -3.88679
  0.05285
  1.06406
 -3.78512
 -6.00819
  2.99406
  0.61005
  4.05483
 -2.42076
  2.26684
 -4.01009
  1.85439
  3.09412
 -7.03408
 -2.84786
 -6.67505
 -7.42700
  4.84731
  0.06168
  1.04675
 -3.05378
  4.54880
  0.33031
  0.05283
  5.12249
 -1.53716
 -0.96096
 -2.88346
 -1.41819
 -5.47478
 -0.04340
  5.70037
 -5.05643
  2.98036
 -5.84567
 -4.67723
 -2.46878
 -6.18695
 -7.42572
  2.46530
  4.88257
  4.34006
 -7.19253
 -1.93304
  0.03047
  6.81501
 -1.79521
 -2.43968
 -4.26812
 -2.47740
 -1.54992
  0.26136
 -6.24936
  6.59622
 -4.80354
 -3.35297
  4.62131
  0.21323
  5.76150
 -2.75142
 -1.48556
 -1.74484
 -2.41529
 -4.42163
  2.24635
  6.81154
  6.15030
  3.15859
 -6.96726
  1.17851
  5.69020
  5.41317
 -6.42716
  2.53440
  4.46028
  7.18252
 -5.29358
 -7.37181
  0.75952
  3.54843
  7.31620
  6.20225
 -0.38022
 -3.39140
 -5.74694
  4.09376
  1.96615
  2.83094
 -4.67977
  6.66217
  1.29426
 -5.11543
  4.38265
 -3.85563
 -1.45006
 -6.67699
  3.65034
 -4.05798
  6.16688
 -1.99310
  2.49124
 -2.52878
  5.72320
 -5.26602
  4.69969
 -6.93746
 -5.39411
 -6.90026
  1.81290
  4.57094
 -7.15635
  1.35274
 -4.49606
 -4.33922
  0.55847
  1.10800
  7.81269
 -4.65917
 -6.40906
  6.08556
 -0.34286
  7.12027
 -1.98558
 -5.03650
 -6.08258
 -6.58816
 -6.64615
  7.24130
 -4.81213
 -3.77811
  0.75522
 -5.05435
 -2.55234
 -4.41239
  6.93887
 -7.08738
 -2.75528
 -4.59032
  5.24149
 -7.41852
  6.66959
 -1.77530
 -6.50706
  5.17751
  4.01133
  5.76230
 -7.06505
 -6.82575
 -1.16468
  1.79637
 -5.53976
  1.04268
 -1.83018
 -1.50815
 -5.61552
  5.67785
 -4.94427
 -7.13993
 -5.06840
  3.21396
  0.27389
  4.88676
 -5.65034
 -4.96045
  4.19243
 -6.80633
 -4.00738
 -2.20821
 -1.11777
 -2.81832
 -3.22343
  2.86390
  4.42643
 -7.11773
  2.32391
  6.79139
 -4.51271
  5.40957
  4.74556
  3.72368
  4.44597
  4.86296
 -1.19644
  5.94623
  1.92913
 -0.14616
  6.81317
  0.74319
 -6.64681
 -4.73487
  4.33772
  0.98005
 -3.21420
 -5.17195
  1.80226
  3.10834
  4.37927
  0.29487
 -3.32373
  0.40057
 -3.50816
  3.72292
 -1.11041
 -0.72190
  4.00685
 -4.91092
  7.09275
  6.67859
 -6.31219
  2.18912
  4.20358
  2.47569
  6.03032
 -5.64518
  7.13647
  0.44448
  5.93096
  5.51994
  2.05368
 -7.27177
  4.66487
  5.38643
  6.42884
  4.64348
 -7.11537
 -1.76782
 -2.43266
  5.38813
 -1.44321
  4.49958
 -3.11185
  2.71575
  1.77672
 -7.18887
  1.14455
 -0.31574
  3.45117
 -3.62282
 -6.53812
  1.76575
  6.18195
 -6.63468
  5.45903
  0.58420
 -6.94078
  3.24237
 -4.50747
  4.62488
  0.05231
 -6.67758
  5.45814
  2.24305
  6.32567
 -0.00785
  1.96271
  7.22146
  7.68286
  13.99195
  17.34814
  11.44455
  5.59049
  5.28857
  6.48155
  4.86061
  15.17523
  19.39038
  16.22303
  9.97872
  7.38492
  7.29579
  6.03337
  13.44429
  6.43765
 -3.10539
  9.84399
  11.81733
  7.82236
  0.49416
 -7.40117
 -4.68716
 -1.20511
  1.57245
  7.06260
  3.43191
