# vtk DataFile Version 3.0
Surface Data
ASCII
DATASET POLYDATA

POINTS  1003 float
 10.122457 -2.871746 -11.759355
 9.125817 -7.878654 -11.048948
 3.618587 -7.262486 -21.042988
 7.204639 -1.941571 -17.142582
 4.604141  0.125869  1.377095
 0.526354 -19.141525 -11.669590
 2.560832 -5.193021 -4.718466
 8.166165 -9.884628 -12.920355
 7.872275 -10.304196 -10.014626
 7.589835 -10.508467 -14.565690
 9.928170 -5.355893 -11.666165
 9.125837 -7.681954 -13.460446
 9.676024 -4.798728 -13.710546
 1.659681 -10.206068 -20.188375
 3.939220 -11.412194 -18.316841
 5.717645 -9.489719 -17.885912
 7.371943  5.476594 -2.036523
 7.732593 -1.308296 -2.362383
 9.886236  1.675210 -6.447766
 6.845841 -3.100699 -4.310569
 10.293024 -1.125906 -8.905690
-2.979989 -10.853003 -19.191408
 6.551730 -11.816333 -7.961242
 3.084888 -16.948503 -6.713091
-1.045431 -11.559044 -3.153937
 7.601501 -11.222551 -10.683398
 7.664573 -11.041806 -12.635572
 7.180654 -12.396557 -12.116822
 8.571400 -9.106885 -11.938307
 5.708704 -13.003531 -15.443869
 8.147168 -9.294534 -14.619904
 7.175771 -10.632276 -15.384856
 7.029391 -9.865615 -16.138393
 6.748889 -11.871815 -14.955516
 7.053593 -11.978552 -14.039171
 9.910796 -3.630065 -13.006416
 8.921868 -7.369234 -14.514368
 8.197462 -9.604305 -13.863942
 8.691974 -8.768645 -13.150802
 1.300682 -4.286864 -21.673582
 3.635667 -9.625614 -19.684082
 2.510460 -10.624096 -19.667583
 2.840480 -8.896358 -20.550583
 0.849838 -10.036400 -20.368706
 6.648409  2.793608 -13.839136
 9.737811 -0.924498 -12.455608
 7.403919 -1.049498 -16.476017
 8.522746 -1.285287 -15.060023
 8.419379 -2.525670 -15.719977
 8.997028  0.436412 -13.167289
 9.168123 -0.797553 -13.740715
 8.510887 -0.029760 -14.273713
 5.655336  0.606300 -18.012545
 6.372350 -1.956032 -18.285000
 5.954950 -0.529266 -18.191805
 7.207321 -0.054217 -16.157459
 4.338041 -12.243583 -17.369013
 4.701252 -8.801061 -19.351151
 5.535323 -10.857349 -17.249565
 6.397986 -3.215448 -18.770098
 9.520632 -3.699647 -14.120160
 9.151098 -5.162629 -14.914735
 8.956867 -3.342448 -15.137506
 7.727932 -2.859112 -16.744734
 6.748182 -6.011244 -18.335571
 7.208139 -4.960327 -17.813084
 7.074803 -6.891818 -17.535175
 4.943864  3.101911  2.132047
 6.539000 -2.198627 -2.947500
 8.777839  3.847019 -4.073973
 6.281876 -0.217083  0.494040
 7.983854  3.115737 -0.206740
 9.621089 -1.650786 -4.407970
 9.086825  0.405979 -2.683993
 4.920033 -2.768157 -3.120211
 7.462611 -10.352582 -8.810286
 8.981576 -7.729941 -9.704175
 8.241773 -8.957885 -9.271195
 7.698277 -8.799070 -8.233327
 6.832771 -8.511916 -7.474524
 10.170992 -3.672993 -10.998314
 9.304526 -5.538023 -7.535192
 9.885695 -5.725896 -10.576163
 9.559360 -6.654135 -10.179543
 5.856782 -5.665397 -6.212924
 6.987143 -6.699267 -6.905879
 10.255640 -2.263783 -10.391416
 9.466019  0.303696 -12.330854
 5.580374 -3.431573 -4.440938
 9.679710  1.326762 -10.303500
 9.810019 -2.577667 -5.510560
 1.529797 -13.211804 -18.178774
 7.177721 -12.012018 -9.515904
 6.428897 -13.895626 -8.426089
 7.175722 -12.496747 -10.901443
 6.754568 -13.721645 -9.897454
 6.120626 -13.565970 -14.289534
-7.233170 -10.346854 -3.051219
-7.507772 -12.141760 -3.761176
-6.562726 -18.584358 -11.597036
-9.442383 -12.813073 -13.277830
 3.954778 -15.242357 -6.084615
 0.444540 -16.034229 -4.772664
-0.768892 -15.002084 -3.807708
 1.540917 -18.786018 -8.888988
-4.299588 -16.347593 -4.667652
 4.939939 -17.037622 -9.079911
 4.395886 -16.022600 -14.120527
 5.909738 -10.269869 -7.136049
 4.036245 -8.232265 -6.226941
 3.424424 -9.780998 -5.684667
-2.328299 -10.325183 -2.549660
 2.370380 -13.287986 -4.409600
 1.160654 -13.707355 -3.900356
 3.895549 -4.122417 -4.549593
 1.016132 -2.429427 -20.871180
-3.772196 -0.870671 -0.418704
-8.181067 -6.694403 -17.655170
-8.903684  1.387898 -9.661095
 2.393459 -4.201419 -3.743645
-7.987643  1.494036 -13.538642
-6.460384  0.492658 -17.834368
-2.081727 -9.701635 -19.929605
-7.162155 -3.121316 -19.477610
-5.874325 -5.027981 -20.222399
-6.019190 -6.782022 -19.805634
-5.409752 -2.470600 -20.337803
-2.058694 -4.788443 -21.620501
 5.878247  3.115336 -14.820115
 5.186816  3.263056 -16.004671
 3.345066  5.216494 -14.783947
 4.377187  2.532537 -18.094917
 3.774668  3.928005 -17.022238
 1.944613 -1.755166 -0.310154
 4.240718  6.324063 -0.153501
-6.263653  3.962944 -12.002699
-9.381716 -0.031420 -12.017179
-9.157424 -0.753530 -14.278452
-9.727173 -2.778528 -15.080234
-9.931487 -9.296427 -6.994401
-8.295927  0.898978 -6.104915
-0.462199 -9.606121 -3.237323
-5.489284 -2.055137 -0.973693
-1.175058 -8.224270 -2.277051
-8.549725 -2.528390 -4.082536
-9.608356 -6.331798 -5.925173
 6.366182 -4.070373 -19.091282
 5.962034 -4.616510 -19.710300
 8.072820 -5.820647 -16.482620
 10.101851 -2.284395 -6.639849
 7.868515 -4.878557 -16.849764
-2.415534  4.015823 -17.302126
-5.712184 -5.075363 -0.806702
 9.787165 -3.919298 -6.832465
 7.458305 -5.866028 -17.320963
 6.023516 -6.751107 -19.091694
 9.233249 -4.632741 -6.439680
 4.885475 -14.718062 -14.844993
 5.066157 -9.447078 -18.600714
 8.590048 -5.845372 -15.759737
-3.618298  4.186812 -16.313881
 0.934090 -8.845656 -4.219000
 5.746740 -3.531060 -19.740421
 0.726492  1.127008 -19.771219
 7.645107 -6.608193 -16.871511
 9.477028 -3.612921 -5.729709
-4.580829  2.156612 -17.728228
-7.466638 -3.012606 -2.318829
 5.202629 -7.424458 -19.702385
 3.851193 -6.186644 -5.745038
-3.537072 -1.590033 -20.406849
 6.028609 -14.658004 -13.031205
-7.740860 -1.981798 -3.014891
 8.130543 -6.891497 -16.114080
 9.312099 -2.733753 -4.788111
 6.579664 -8.215166 -17.571251
 6.883003 -4.047049 -18.267385
 8.213420 -3.753980 -16.286360
 7.029148 -3.030549 -17.768785
 6.400765 -9.657189 -17.037098
 4.827219 -10.636438 -18.076794
 9.118564 -4.268187 -15.059309
 4.846834 -3.471531 -20.533051
 6.083833 -15.428546 -9.353947
 7.768318 -8.346627 -15.969004
 4.720050 -6.684625 -20.533148
-2.502565 -1.672817 -20.562120
 5.293303 -4.280900 -20.391273
 10.104272 -3.648690 -8.314213
 4.250269 -10.193190 -18.880692
 8.807148 -6.495929 -15.221527
 6.413063 -4.166189 -5.347862
 4.165031 -8.088764 -20.244694
 8.433073 -7.509278 -15.419950
 7.389769 -4.981413 -6.022324
-6.906327  0.845782 -4.071271
-0.534275 -1.504970 -20.474937
-2.030188  7.229170 -10.648006
 9.028308 -1.542989 -3.647047
-2.643424  4.638126 -3.904988
-8.580642 -0.720213 -5.011983
 9.341953 -6.077736 -14.257804
 5.069924 -4.608514 -5.475947
-2.924065  5.150884 -15.297014
-9.789585 -4.137756 -14.787899
 10.181493 -0.613447 -6.450374
 5.828977 -2.553291 -19.265245
 1.738480  0.775042 -19.806395
-5.707559  1.661698 -17.381826
 6.232624 -10.807435 -16.561302
 8.967082 -2.036197 -14.750989
 9.450077 -2.194088 -13.869275
 5.464939 -12.106618 -16.449858
 4.843004 -16.180077 -7.509771
-10.217955 -6.565038 -9.946968
-9.931581 -6.029642 -7.022723
 8.321347 -8.419125 -15.039366
 6.769365 -0.855240 -17.258877
 1.846065  3.323817 -18.597198
 3.003923  0.795210 -19.639519
 7.727266 -9.497880 -15.314928
 7.884936 -1.728398 -16.137863
-5.948536  1.594158 -3.658487
 9.793710 -4.976868 -8.147028
 3.266568 -11.112778 -18.977861
 9.882471  0.234122 -4.874857
 9.635284  1.723261 -4.506970
 2.835387  8.337590 -5.343529
 9.400296 -6.743360 -13.663944
-1.600231  5.054811 -2.755879
 5.325596 -1.478021 -19.277662
 0.001746 -3.368697 -21.370668
 3.525431 -2.196146 -20.540440
 1.641796 -17.576443 -6.738202
 6.459966 -11.415555 -15.842944
 5.575778 -13.852238 -7.109200
 8.514167  2.320745 -11.438937
 5.411045  5.231107 -11.221477
 2.885000 -11.549948 -4.894952
 9.886489 -2.376798 -12.708658
 3.397532 -12.813291 -4.994609
 8.936896  3.541619 -6.079252
 4.047404 -11.470969 -5.672279
 5.855887  6.692007 -6.702020
 9.989450 -4.354322 -12.435258
 2.330033 -16.024124 -5.401952
 3.049828 -14.355577 -4.990097
 1.576254 -15.005526 -4.462114
-6.975130 -4.582475 -19.550335
 6.899387  3.430998 -12.196976
 4.287458 -13.288851 -5.747555
 7.624114  5.415473 -4.050496
 9.719934 -5.706573 -13.128125
 2.316261 -11.926173 -18.894304
 1.064437 -16.817810 -5.660908
 8.625195 -8.523046 -14.149511
 7.899554 -0.566590 -15.501091
 2.786032  4.143409 -17.362955
-4.412839  1.164551 -1.259702
 1.783131 -7.193555 -21.653254
-7.472788  1.959445 -6.642412
 2.751447 -8.085814 -5.523511
 10.103500 -4.426009 -10.079548
 2.909575 -4.392368 -21.522461
-6.878653 -7.399409 -19.000055
 1.796646 -12.078196 -4.198055
 9.124725  2.183337 -2.875532
 5.054143 -0.015387 -18.906683
-7.419003  0.657641 -16.654335
 1.340341 -16.052767 -4.936983
-6.185731 -3.482255 -20.150864
-10.231123 -4.587455 -8.019373
-7.845088 -0.356915 -17.302774
 8.595390  3.681959 -2.412523
 6.682725 -13.129577 -13.486731
-9.525660 -1.820044 -14.706851
 7.904268  0.529755 -0.754575
 4.072871  0.558459 -19.332556
-6.703402 -5.939113 -19.548529
 6.119364 -14.454143 -7.713138
 9.889912 -5.316173 -9.360510
-0.972251 -4.371844 -21.754507
 1.349959 -11.738466 -19.271574
-4.888040 -4.788465 -20.743177
 9.560118 -6.709804 -12.666223
 8.479405  1.809528 -12.438040
 1.537838 -8.758060 -20.990690
 8.367744 -5.837987 -6.895481
 0.231111 -15.028235 -4.039576
 9.605415 -6.728212 -11.447262
 6.442685  4.904718  0.604374
-9.066026 -0.939368 -15.414662
 7.680895 -10.803416 -13.567163
 9.440814 -6.297717 -8.856084
-1.817172 -6.303355 -21.494675
 3.549124  4.561652 -16.037506
-0.946275 -16.008556 -4.567326
 5.769692 -1.718835 -1.553990
 6.410805  0.467619 -17.000645
 6.761187 -13.336099 -12.683338
 4.448030  3.308699 -17.159931
 8.457963  1.134384 -13.282228
 4.793142 -9.908957 -6.454628
-4.022150  3.920172 -4.903353
 4.879604  1.423945 -18.350365
 7.094861  1.635127  1.015040
 1.281003  4.846311  1.582278
 0.446694 -5.605547 -21.937084
 2.328004  5.616691 -14.868372
 0.818259 -10.967440 -19.828981
 5.466638 -7.850603 -6.741536
 5.797910  1.103878  1.637500
 2.745117  2.352375  2.138582
-5.515635  4.657330 -12.476295
 3.202738  5.832966 -13.511988
 9.172452 -7.834713 -12.325746
-3.850285 -15.482344 -4.067260
-3.831130 -6.638635 -20.751596
 4.303697  4.681652 -14.608049
 7.204813 -12.075895 -13.139876
-0.420123 -6.875674 -21.631910
[...]
POINT_DATA  1003
SCALARS atrophy float 1
LOOKUP_TABLE default
  8.59958
  8.92518
  4.64735
  11.29059
 -5.30406
 -2.38538
  0.32139
  0.96461
  6.14567
  12.64011
  8.53154
  5.18871
  0.22243
  6.19225
  3.60951
  8.33020
  4.02534
  12.42192
  1.16850
  2.35615
  0.72885
  3.33627
  10.09596
 -5.56836
  5.19125
  13.29543
  6.98662
 -1.44746
  0.84622
  3.78248
  3.12378
  6.56726
  6.92051
 -0.66038
 -0.76884
  1.52203
  8.57356
 -1.15130
  9.85736
 -0.32881
 -5.22970
 -2.99119
 -4.17632
  6.94367
 -0.32185
  0.29267
  6.99372
  12.17034
  3.18308
  1.56535
 -1.34768
  2.08205
  9.73643
  6.21856
  7.08900
 -0.58163
  6.86059
  0.95171
  0.81047
  11.97409
  7.81518
  9.18612
  4.54232
  11.52071
  11.54103
  10.68910
  10.06604
 -6.55105
  9.79890
  11.21639
  10.30272
  11.30031
  7.45985
  8.72449
 -1.38228
  7.50268
  2.21520
  0.98933
 -1.02998
  10.73640
  3.05574
  1.19593
  5.53390
  6.25930
  8.24804
  6.68512
  2.66042
 -0.38420
  0.30263
  7.75170
  9.30178
 -1.59990
 -0.90201
  3.89838
 -0.19229
 -1.13845
  3.57001
  2.85688
  5.57965
 -0.08674
  1.82925
 -2.03042
 -4.51726
  6.15516
 -7.38272
 -6.85569
 -6.62684
  5.89109
  9.13919
 -1.23318
  3.10908
  1.32918
 -6.72458
  1.17157
 -4.11013
  3.73808
  7.14324
 -1.35564
 -1.20099
  2.39543
 -4.55376
  6.28783
  1.33356
  1.41278
 -1.17338
  3.86137
 -6.35549
 -4.10613
  7.69129
  6.50966
 -2.38708
  6.03742
  2.44728
  6.59201
 -2.50378
 -0.71262
 -0.90763
  1.62509
  3.60137
  6.58969
  3.30429
 -7.07882
 -4.73736
  6.25216
 -4.96010
  2.92560
  6.84679
 -1.83833
  13.11343
  12.62097
  1.92081
  6.56049
 -5.56790
  2.63415
  3.34964
  3.24305
 -0.94903
 -0.54937
  8.07524
  9.26930
  3.01736
  3.47420
  1.92987
  0.87413
  4.73984
  6.42904
  7.15537
 -1.64597
 -0.66327
 -3.20058
  5.84490
 -5.66542
  3.99619
  2.82647
  6.90602
  2.16139
  1.18151
  0.54763
  13.26087
  1.14238
  5.99573
  13.17815
  3.36701
  1.14853
  10.80928
 -3.08282
  2.24091
  0.14037
  6.61355
 -6.90766
  3.68821
  7.01906
 -2.48051
 -1.29216
  5.25831
  2.87025
 -1.07388
  5.94389
 -1.32363
 -1.98376
 -0.85514
  3.77562
  5.08503
  3.81070
 -5.22543
  2.64265
  2.97218
  3.55085
 -3.22074
  10.23814
  10.83169
 -1.34645
  5.80899
 -7.07657
  4.60848
 -4.93230
  2.27466
  6.89039
 -5.94840
 -4.61447
  7.48885
  8.87027
 -0.34040
  12.55398
 -3.85287
  9.72641
  11.61980
  4.05214
  6.71083
  2.61989
 -4.28825
 -5.05477
  0.52779
 -4.11633
 -0.35690
 -2.91140
  3.41168
  3.50241
 -7.06405
  6.94331
 -1.36307
  6.52559
  2.62866
  12.07571
  11.62994
  4.95363
  7.22397
  2.23185
 -6.98754
  0.05724
  2.01459
  5.62283
  8.49926
 -2.93090
 -3.67422
  2.23375
  11.94100
  7.34278
 -5.66564
  5.99767
  5.84538
  0.24365
  3.17544
  0.23985
 -2.14550
 -3.06818
  0.13332
  4.88202
 -1.23356
 -6.41797
 -4.78879
 -1.56532
 -5.62609
  5.30341
 -0.99871
  5.85120
  7.29784
 -4.52187
 -7.45057
 -1.22163
  2.41359
  3.89463
 -0.53323
  4.65657
  5.67734
  12.06440
  3.74124
  7.07500
  5.10434
  9.34432
  13.41062
  1.87692
  13.33986
  2.83400
 -7.40060
  7.43747
  5.52242
  2.10038
  12.91868
 -0.94839
  6.35354
  4.93876
 -1.45872
 -6.67736
  6.11382
  4.62402
  5.73811
  2.38366
 -6.46709
 -7.41241
  8.48370
  4.83372
 -3.01867
 -3.97886
  0.97016
  4.90993
  2.71238
 -2.53981
 -1.92295
  3.25127
  3.47570
  7.47641
  7.38244
 -2.33106
 -7.04529
  3.49331
  10.47438
 -6.82997
 -3.57143
 -5.30368
  2.10655
  12.03797
 -4.31157
  4.27928
  3.41387
  8.99824
  6.40610
  12.13842
  8.68218
  3.89368
  5.59040
 -2.59849
 -4.66092
 -3.71705
  1.15697
 -2.67761
  7.17344
  5.02341
  7.13870
  0.53426
 -1.56386
 -0.20873
  2.42682
  5.12186
 -4.59813
  1.51939
  3.14095
  7.21808
  6.01017
 -1.27440
  1.58779
  10.09520
  2.70511
  10.86198
  4.01124
 -7.44352
  9.41538
  6.76190
  2.02442
  3.68019
  12.15772
  6.92752
  3.93984
  11.49544
  6.78981
  6.51807
  12.25344
  5.24417
  5.95109
 -0.67214
  1.60590
  13.09252
  5.83300
  0.09987
  8.86990
  1.89532
  12.36597
  5.90724
  5.33241
  1.39640
  6.99130
  6.68420
 -4.21400
  6.56531
 -6.15910
  4.38081
  0.43675
  3.53148
  5.15587
  2.81653
  2.50422
 -2.16277
  9.91240
  11.71025
  2.35420
  3.89098
 -2.73499
  4.41776
  7.01238
  0.17705
  6.81154
 -3.29309
  7.08555
  0.34131
  6.47494
  3.30675
 -4.73699
  1.00831
 -4.44707
  3.58584
  3.83738
  8.15027
  6.86806
  5.86314
  6.06470
  3.15856
  7.68544
  11.61296
  6.63589
  7.32638
  11.95813
 -4.84709
  7.56742
  12.85590
  12.43416
  3.41334
 -6.76478
  7.66809
  6.01014
  5.33936
  11.47700
 -0.22341
 -1.97537
  13.29683
  7.42345
  5.88501
  13.25686
  5.13860
  6.38174
  4.86160
  3.00634
 -4.47429
  4.36173
 -4.59015
  5.99502
  6.83320
 -1.25750
 -0.63904
  0.36054
  10.88812
 -7.30841
  2.71910
  7.99034
  2.13257
 -2.22056
 -0.70866
  13.13966
  2.34626
 -1.92037
  1.78079
 -5.72455
  2.36204
  2.99240
  5.31204
  2.70673
  6.56260
 -6.59993
  1.19880
 -6.27089
  5.18736
 -4.93655
  0.95100
 -3.11354
  6.47532
  5.63239
  4.53280
  1.41996
  3.81808
 -1.66960
  4.74881
  6.72028
 -1.97050
 -7.39947
 -0.80056
  3.48410
  2.88879
 -6.51796
 -6.96398
 -7.04575
  2.17333
  4.57726
  0.40853
 -6.17748
  7.09698
  1.83038
  2.49712
  0.13238
  5.26869
 -2.46568
  6.44654
  0.20685
 -6.57458
 -1.88871
 -3.85895
 -0.40743
 -4.70423
  4.71951
  2.13362
  0.59900
 -1.44723
  5.70895
 -2.43371
  4.17269
  1.42621
 -0.76931
  1.26796
 -2.34152
 -4.27812
 -0.67344
 -1.54410
 -3.68257
  3.87670
  4.40492
 -6.51451
  4.45483
 -2.69439
  6.55277
 -0.59583
  4.86573
 -4.38839
 -0.83327
 -4.49790
  2.69453
  2.54460
  2.62319
  5.53491
  0.76968
  3.64382
  5.07156
  1.10762
  1.25573
 -3.43305
 -0.30207
 -6.58840
  6.48281
  3.49026
 -0.52750
 -4.90208
 -4.01289
  4.28324
 -5.76404
 -2.60883
 -5.41831
  2.67664
 -5.43123
  4.49341
  2.33348
 -1.99340
 -3.57103
 -0.27761
  0.73476
  4.85420
 -2.29449
  3.52499
  5.09038
  0.08007
 -0.00970
  3.20361
 -1.03635
  1.64655
  4.28454
 -2.30577
  3.11842
 -6.13900
  1.93555
 -0.46906
  4.26427
 -0.62127
  4.64490
  5.86255
  3.88112
 -4.24138
  6.11990
  5.32082
 -6.05469
  0.73080
  4.52509
 -1.84921
  6.35213
 -7.09514
 -3.85236
 -2.58622
  3.44423
 -1.78974
  4.49200
  1.32234
 -0.99887
  5.37516
  4.77191
  6.30605
 -2.78171
 -5.10004
  5.06042
  3.90139
 -3.10906
  2.78257
  7.06951
 -2.79791
 -5.07212
 -3.01658
 -6.87149
 -5.65429
  3.44402
 -5.47710
 -2.53527
  4.51292
  7.24206
 -0.32211
 -3.25965
 -5.44261
  2.14212
 -4.06211
 -0.60366
 -5.94244
 -5.30386
  5.54240
  4.86326
  1.42394
 -6.36628
  6.65651
 -4.91053
  2.51454
  6.10332
  5.33082
 -1.37726
  2.86263
  4.31645
  5.40490
 -0.46216
  5.51025
 -6.06226
 -6.20969
 -1.29368
  7.38308
  0.30003
  0.19484
  2.81285
 -0.11017
  7.29666
  4.99916
 -2.35229
 -0.99524
  2.78733
 -3.46348
 -7.07793
  5.80307
 -4.66269
 -5.04003
  3.89940
 -3.80419
 -4.29946
  5.05899
  2.04582
  0.26843
  7.12440
 -4.21882
  1.29827
  6.65937
 -5.13755
 -6.71201
 -3.21294
  3.39939
 -0.86466
 -1.62499
  4.08482
  6.16279
 -5.80670
 -0.68577
  0.63533
  2.90827
 -5.86964
 -2.79914
  1.85435
  4.87247
 -2.19094
 -0.00318
  0.98000
  1.47877
  4.31184
 -1.42482
 -5.25599
  2.65915
 -6.58166
 -0.09069
  5.41986
  7.37669
 -1.25647
 -0.09329
  0.42822
 -3.61616
 -3.04600
 -2.93694
 -5.63757
 -7.39418
 -3.52847
 -7.40992
  6.13892
 -2.38835
  6.07919
 -7.26412
 -2.35171
  5.61895
 -7.06111
 -4.96421
  2.60678
 -4.90393
 -2.27078
  1.87010
 -7.32315
 -4.62373
 -6.32395
  1.36425
 -6.62129
 -6.97976
  4.27261
  6.11492
  2.37975
 -4.23019
  6.97326
  6.82727
 -1.89816
 -7.20072
  2.52133
  6.05795
 -0.46116
  2.71428
  2.13257
 -4.04502
  2.69642
  2.57761
  4.21452
  2.18419
 -5.88007
 -1.12591
  7.36092
 -2.55701
 -5.92253
  1.48851
 -5.55027
  4.93646
 -1.51647
  6.88037
  2.00472
  1.01868
  1.17482
 -6.23021
  4.25353
 -1.84586
  1.03879
 -6.59986
  3.78125
  7.20251
 -1.60129
 -2.47576
  1.05570
 -0.60698
  5.55614
 -5.66864
  1.41813
  1.15790
  3.76963
  1.80334
  1.17482
 -4.39216
 -4.02352
 -0.52517
 -0.28060
 -3.01664
 -0.65515
  6.82881
  2.50056
  5.62519
 -5.32232
 -0.38655
 -5.58508
  2.70933
  2.27839
 -1.79834
 -1.88810
 -2.00131
  3.22671
  4.52967
 -3.53640
 -0.77416
  1.03436
 -4.19622
  7.41425
  4.21494
 -6.06217
 -3.43296
  5.25521
  5.73297
  2.86125
  2.11366
 -1.73977
  3.33111
  1.30553
  4.51676
  0.12633
 -4.37249
  1.56672
  4.36881
 -0.36409
  4.08651
  2.15845
 -0.76105
  6.95291
 -3.22161
  3.74398
 -7.03226
  5.94760
 -4.07066
  4.62128
  4.19283
  6.39592
  2.66776
 -5.16752
 -4.90951
  0.43489
  1.83158
  4.67854
  5.11654
 -5.42812
 -7.05738
 -7.40351
 -5.11325
  0.31219
  4.51573
  5.60365
  0.84816
  5.71470
 -1.25597
 -5.42109
  1.17359
  3.59038
 -5.61411
 -3.34168
  6.02396
 -7.11530
 -7.36097
 -3.42451
 -2.74102
 -7.39555
 -5.35754
  0.77616
  4.11902
  2.39395
 -6.60017
 -6.91242
 -1.27150
  5.69595
  6.83022
  4.01296
 -0.32137
 -4.61957
 -7.19214
 -3.94651
 -4.44821
  0.08010
 -3.35070
  1.68638
  6.02509
 -6.62657
  0.01379
  1.31085
  7.12330
  1.46661
  4.09035
  3.25573
  7.39019
 -7.37168
  0.64920
  6.63632
  3.14139
 -5.15721
 -6.47907
  4.63391
 -4.81958
 -4.25816
  6.25823
  6.34467
  6.22555
 -2.20362
 -1.64470
  4.65544
  3.15702
 -1.06170
  6.44113
  0.61139
  6.37235
 -5.74310
  0.04359
 -6.53317
  6.77770
  1.52994
  2.91413
 -7.21302
 -6.64886
 -0.02308
  7.23564
  6.87247
  4.07519
 -3.27072
  2.66011
  2.65522
 -4.36943
  2.84423
 -6.15626
 -0.45097
 -3.67561
 -4.21481
  2.05604
 -3.06377
  3.22103
  1.36597
  0.88455
  7.41279
 -6.22253
  3.00410
 -7.42582
 -5.70089
  6.61443
  3.74612
 -1.89261
 -6.74217
  2.62005
 -0.32538
  2.62566
 -1.37174
  1.49051
  4.24354
 -7.22155
 -3.99011
 -2.73478
  3.43815
 -4.98045
 -5.02000
  6.81022
 -1.04841
  7.41618
  2.30648
 -5.77537
 -7.07104
  4.65445
 -4.31333
  3.15153
  4.51622
  7.34203
  0.98775
 -3.65176
  0.27613
 -2.99067
 -2.16346
  1.34306
 -4.42485
 -1.71935
  2.33732
  6.13574
  7.61224
 -4.92418
  6.58535
 -4.67718
  0.67522
  3.10692
  6.86191
  0.54801
  2.42062
  7.37463
  6.37313
  3.21866
  5.04635
  13.22797
  6.43997
  3.46974
  11.14092
  10.20388
 -4.17797
 -5.99004
 -1.33056
 -2.26347
 -5.69336
  3.02266
  4.14727
