# vtk DataFile Version 3.0
Surface Data
ASCII
DATASET POLYDATA

POINTS  1003 float
 9.340286 -2.978575 -11.568497
 8.352977 -7.502373 -11.149433
 3.485103 -7.494596 -20.998358
 6.911919 -1.983800 -16.884995
 4.527494 -0.346841  1.084699
 0.413988 -18.762932 -11.700330
 2.145706 -5.607809 -4.302634
 7.503056 -9.695829 -12.681191
 7.200971 -9.775277 -10.312755
 7.093310 -10.326151 -14.308878
 9.167067 -5.220347 -11.593534
 8.354982 -7.403829 -13.245431
 8.934784 -4.789239 -13.451456
 1.651536 -10.183100 -20.268908
 4.087482 -10.958467 -18.274721
 5.591299 -9.177113 -17.725510
 6.725839  4.762819 -2.488074
 7.504274 -1.121227 -2.532411
 9.058238  1.492766 -6.405157
 6.736455 -3.177413 -4.027122
 9.471934 -1.234875 -8.873323
-3.072793 -11.307371 -19.651852
 5.902409 -11.269059 -8.579782
 2.876830 -16.913799 -6.731188
-1.401833 -11.768043 -2.796860
 6.977999 -10.777316 -10.815228
 7.125227 -10.937644 -12.384654
 6.752516 -12.246498 -11.932001
 7.822858 -8.791655 -11.877521
 5.571395 -12.784569 -15.422619
 7.513577 -9.027765 -14.333175
 6.760296 -10.381072 -15.220870
 6.636712 -9.562078 -15.994029
 6.450329 -11.711513 -14.811017
 6.727893 -11.946779 -13.786581
 9.141957 -3.712423 -12.757565
 8.211378 -7.132751 -14.234400
 7.545294 -9.383721 -13.577130
 7.940947 -8.489824 -12.938626
 1.538479 -4.045237 -22.336040
 3.724262 -9.446484 -19.568699
 2.614516 -10.425612 -19.638279
 2.825388 -8.929734 -20.550169
 0.761782 -10.124947 -20.556404
 6.452651  2.612571 -13.796946
 8.935667 -1.164664 -12.173410
 7.097828 -1.147860 -16.219736
 7.937568 -1.456972 -14.750020
 7.851690 -2.600823 -15.425802
 8.300275  0.112692 -12.823785
 8.441895 -1.048279 -13.413715
 7.924443 -0.293637 -13.946009
 5.499833  0.419554 -17.894690
 6.185180 -2.060396 -18.067099
 5.822434 -0.696359 -18.040888
 6.932818 -0.214053 -15.915854
 4.380585 -11.793866 -17.370892
 4.677919 -8.653675 -19.119026
 5.441442 -10.455807 -17.214514
 6.112301 -3.306837 -18.461685
 8.780098 -3.782053 -13.831656
 8.466846 -5.130708 -14.615455
 8.284843 -3.418565 -14.835668
 7.293726 -2.859839 -16.451435
 6.252654 -5.986966 -17.838251
 6.698475 -4.910283 -17.366627
 6.600299 -6.768286 -17.122250
 4.900304  2.564034  0.787382
 6.510328 -2.271905 -2.701472
 8.048374  3.344195 -4.156772
 6.165738 -0.417317 -0.000540
 7.222225  2.791521 -1.359327
 8.873594 -1.289138 -4.798073
 8.334842  0.652601 -3.127160
 4.967122 -3.049604 -2.513847
 6.820636 -9.781598 -9.321424
 8.250759 -7.272970 -10.004986
 7.562088 -8.433209 -9.674401
 7.074045 -8.352779 -8.730995
 6.229394 -8.356641 -7.889729
 9.406554 -3.681410 -10.910057
 8.612562 -5.129479 -7.948689
 9.127347 -5.488085 -10.661592
 8.801347 -6.297733 -10.372910
 5.457843 -5.972256 -6.005064
 6.467212 -6.685757 -7.077265
 9.466110 -2.365092 -10.288715
 8.691449 -0.006170 -12.016970
 5.542078 -3.719253 -3.902334
 8.915459  1.034839 -10.083158
 9.041297 -2.235273 -5.919277
 1.604406 -12.917862 -18.147379
 6.561471 -11.379483 -9.884171
 5.806949 -13.057483 -8.948689
 6.652795 -12.075308 -10.956764
 6.222440 -13.042657 -10.144938
 5.978709 -13.518508 -14.169400
-6.410244 -10.619846 -3.160077
-6.807854 -12.373101 -4.145893
-6.602572 -18.736053 -11.328362
-8.530313 -12.740028 -12.812531
 3.525782 -15.233234 -6.376487
 0.802944 -16.671408 -4.358839
-0.435099 -15.332658 -3.324662
 1.290863 -18.657776 -8.772555
-3.998297 -16.124094 -5.429520
 4.484179 -16.341377 -9.253118
 4.412871 -15.923084 -14.160963
 5.211684 -10.239745 -7.680479
 3.209143 -8.991961 -6.124866
 2.453299 -10.706186 -5.620297
-2.503223 -10.363859 -2.654665
 1.796276 -14.206198 -4.256509
 0.863019 -14.524930 -3.444880
 3.739092 -4.530539 -3.920784
 1.297949 -1.973055 -21.532393
-3.824941 -0.653666 -0.681323
-8.387537 -6.806635 -17.421671
-8.602094  1.260121 -9.688223
 2.140437 -4.407394 -3.272563
-7.730364  1.472527 -13.304254
-5.949437  0.202005 -17.269997
-2.101605 -9.997950 -20.222446
-7.051473 -3.356075 -18.954313
-5.864968 -5.154790 -19.844833
-6.062938 -6.889604 -19.436775
-5.453654 -2.608087 -19.904165
-1.618173 -4.211881 -21.987484
 5.784461  3.044501 -14.924484
 5.105561  3.279599 -16.183388
 3.422706  5.844862 -15.038640
 4.135209  2.467841 -18.102732
 3.677763  4.189192 -17.236620
 1.677786 -1.847321  0.106840
 4.069495  6.358497 -0.575131
-6.084809  3.922025 -12.011540
-9.410057 -0.070805 -11.880212
-8.939487 -0.821664 -13.972580
-9.374925 -2.902223 -14.988947
-9.793054 -9.177660 -6.886949
-7.626703  0.527721 -6.536641
-1.071966 -9.842156 -3.132315
-5.499308 -1.681463 -1.010013
-1.622691 -8.082620 -2.767951
-7.896080 -2.334842 -3.658945
-9.048136 -6.154052 -5.682504
 5.976377 -4.180402 -18.688257
 5.559539 -4.833287 -19.307396
 7.504128 -5.728571 -16.121500
 9.283969 -2.087672 -6.930588
 7.322005 -4.814347 -16.475296
-2.396592  3.989632 -17.332275
-5.423312 -4.756644 -1.025015
 9.040788 -3.571967 -7.233646
 6.927454 -5.777668 -16.893635
 5.629213 -6.781638 -18.609602
 8.574330 -4.246884 -6.851468
 4.862047 -14.583762 -14.857579
 5.062500 -9.157568 -18.426479
 7.972748 -5.758749 -15.438553
-3.410959  3.888250 -16.425341
 0.051545 -9.444608 -3.929919
 5.493708 -3.778393 -19.505745
 0.469481  0.992741 -19.448742
 7.118112 -6.477287 -16.491463
 8.789791 -3.226141 -6.153963
-4.241601  1.778380 -17.434244
-7.067076 -2.671798 -1.819115
 4.968483 -7.479086 -19.331091
 3.308823 -6.774727 -5.386467
-3.454313 -1.549227 -20.136686
 5.887975 -14.585793 -12.904057
-7.355520 -1.667341 -2.640528
 7.558117 -6.729704 -15.790226
 8.668681 -2.357012 -5.169309
 6.237565 -8.004230 -17.277950
 6.460109 -4.045649 -17.861570
 7.659861 -3.745691 -15.970641
 6.691883 -3.030544 -17.460268
 6.134568 -9.331525 -16.907679
 4.881250 -10.225863 -18.009552
 8.431332 -4.303593 -14.755114
 4.717463 -3.824012 -20.563696
 5.566454 -14.615634 -9.632094
 7.236749 -8.091697 -15.706994
 4.469264 -6.925586 -20.260815
-2.290638 -1.443487 -20.477791
 5.015664 -4.623781 -20.196444
 9.329618 -3.462630 -8.538589
 4.373003 -9.847665 -18.770142
 8.152112 -6.349917 -14.918652
 6.215859 -4.366831 -5.020587
 4.080340 -8.141657 -20.042452
 7.804301 -7.283803 -15.122766
 6.988709 -4.955517 -6.039504
-6.563158  0.831027 -4.530159
-0.276228 -1.066445 -20.720367
-1.672053  6.060608 -10.655773
 8.450610 -1.187449 -3.974945
-2.773233  4.832431 -4.213837
-7.891015 -0.854557 -5.169000
 8.622525 -5.951674 -13.987226
 4.850270 -5.033666 -4.964893
-2.791383  4.890096 -15.511823
-9.665753 -4.273742 -14.867607
 9.314894 -0.581395 -6.593349
 5.665891 -2.747601 -19.086233
 1.453935  0.697218 -19.640688
-5.204209  1.272847 -16.993425
 6.000566 -10.445894 -16.521236
 8.283104 -2.194346 -14.440639
 8.690989 -2.369516 -13.566945
 5.350983 -11.737922 -16.465734
 4.346111 -15.565954 -7.849526
-11.360950 -6.749127 -9.962177
-9.800747 -5.976400 -6.922704
 7.677912 -8.141788 -14.753466
 6.570514 -0.965832 -17.038641
 1.575289  3.481771 -18.491516
 2.692393  0.660549 -19.547745
 7.189738 -9.226132 -15.076689
 7.454998 -1.809416 -15.860493
-5.689269  1.582145 -4.232627
 9.051858 -4.629206 -8.497746
 3.439459 -10.737761 -18.910431
 9.002453  0.327676 -5.067847
 8.753944  1.629760 -4.618471
 2.694369  7.763462 -5.384833
 8.644276 -6.535025 -13.433531
-1.482603  5.240839 -2.974392
 5.232836 -1.694486 -19.219072
 0.400574 -2.772560 -22.033251
 3.570776 -2.328489 -20.916199
 1.685535 -17.838800 -6.485092
 6.187051 -11.124481 -15.783105
 4.931830 -13.339478 -7.707452
 7.958281  1.974191 -11.179258
 5.386543  5.334987 -11.193410
 1.979205 -12.548082 -4.804844
 9.094838 -2.538024 -12.449321
 2.654256 -13.591595 -5.166327
 8.296107  3.159389 -5.997340
 3.173254 -12.158359 -5.945029
 5.621891  6.134169 -6.697883
 9.229318 -4.355583 -12.245839
 2.287326 -16.462400 -5.307129
 2.619486 -14.931684 -5.102801
 1.532822 -15.738212 -4.191314
-7.002326 -4.783607 -19.096273
 6.667303  3.225910 -12.109631
 3.602703 -13.578185 -6.172128
 7.066969  4.653464 -4.145471
 8.965071 -5.589932 -12.925353
 2.455153 -11.585778 -18.849321
 1.327553 -17.354345 -5.320884
 7.905908 -8.239876 -13.870988
 7.471084 -0.736322 -15.213756
 2.659601  4.536628 -17.510025
-4.090294  1.117790 -1.712698
 1.717794 -7.332633 -21.957869
-7.108358  1.789927 -7.008823
 1.832393 -8.963590 -5.218173
 9.346321 -4.298465 -10.143579
 2.948224 -4.555646 -21.968924
-7.153466 -7.510736 -18.645737
 1.026098 -13.079607 -3.782967
 8.245962  2.071175 -3.252078
 4.905186 -0.219908 -18.837990
-6.761304  0.368878 -16.131517
 1.547379 -16.715996 -4.628983
-6.212277 -3.672176 -19.695988
-10.315700 -4.740942 -8.088509
-7.171052 -0.596260 -16.705017
 7.772475  3.216271 -2.865375
 6.466063 -13.158043 -13.246990
-9.242380 -1.912365 -14.503678
 7.422615  0.618999 -1.508307
 3.834051  0.374277 -19.286591
-6.820046 -6.087466 -19.116894
 5.464252 -13.543335 -8.343864
 9.139004 -5.032188 -9.583300
-0.516591 -3.700910 -22.342806
 1.397462 -11.597009 -19.309654
-4.736230 -4.780118 -20.517801
 8.782810 -6.478861 -12.528300
 7.909523  1.452437 -12.133704
 1.455302 -8.858048 -21.177887
 7.791971 -5.541462 -7.219960
 0.433859 -15.634494 -3.563017
 8.828865 -6.446112 -11.462445
 5.976130  4.380093 -0.595112
-8.533727 -1.080462 -15.014161
 7.169173 -10.714338 -13.267251
 8.714648 -5.886603 -9.201208
-1.512221 -5.966271 -21.791279
 3.555562  5.025137 -16.317812
-0.449073 -16.380972 -4.212841
 5.828070 -1.906707 -1.268450
 6.237717  0.301434 -16.837303
 6.490173 -13.287886 -12.461194
 4.305083  3.378982 -17.313534
 7.883189  0.804706 -12.961206
 3.968796 -10.410434 -6.761416
-4.222371  4.120645 -5.281249
 4.659698  1.253751 -18.284962
 6.646031  1.429451 -0.252495
 2.080015  4.431744  0.651441
 0.643779 -5.347260 -22.502861
 2.342504  6.376830 -15.073494
 0.775690 -10.995518 -19.971666
 4.833933 -8.185468 -6.839452
 5.618323  0.721248  0.666848
 3.056313  1.708581  1.296748
-5.219847  4.293599 -12.563743
 3.284224  6.471100 -13.654613
 8.385755 -7.527153 -12.236839
-3.553366 -15.391191 -4.571151
-3.494299 -6.554521 -20.691751
 4.378685  5.059429 -14.877055
 6.837956 -12.072320 -12.849169
-0.305456 -6.696966 -22.024906
[...]
POINT_DATA  1003
SCALARS atrophy float 1
LOOKUP_TABLE default
  17.62608
  18.68140
  5.38073
  15.64026
 -4.86533
 -1.05991
  6.41519
  13.63298
  8.45877
  20.43578
  8.64900
  13.12776
  19.35047
 -3.78652
 -2.29484
  7.38049
  18.06535
  12.44367
  16.55177
  9.13454
  8.97043
 -4.87466
  19.78054
  7.29485
 -4.70497
  7.79163
  18.60200
  16.03167
  9.18195
  13.35919
  18.11962
  9.44258
  20.43574
  20.25742
  16.61018
  12.45791
  12.63354
  8.20035
  10.05672
  4.69916
  2.55218
  4.06251
 -6.14562
 -1.53903
  20.07278
  14.27800
  17.97176
  9.85526
  12.96054
  19.62910
  6.73605
  8.06994
  8.61942
  17.98609
  18.55770
  7.46104
 -3.14811
  4.28772
  7.02983
  19.15145
  13.86144
  10.60763
  19.09759
  16.79566
  13.71107
  19.84079
  17.68052
 -0.84748
  9.38175
  17.15763
  17.20652
  11.16055
  13.19635
  8.50798
 -5.89924
  12.54471
  14.02860
  11.29904
  17.33238
  19.97634
  16.38135
  10.49965
  18.45494
  19.98148
  10.51324
  15.04121
  7.46197
  13.76289
  12.66174
  17.29198
  7.57982
  0.90559
  16.07261
  6.74019
  14.15159
  9.94228
  10.77006
 -1.20477
 -5.66567
 -6.09562
 -1.98824
 -3.02120
 -7.17149
 -7.21961
 -6.20829
  3.86122
 -0.69391
  6.50336
  14.86304
 -1.14928
 -2.36330
 -5.54272
  1.79632
 -6.38498
  1.88104
 -7.38769
 -5.65373
  5.93737
  4.68956
 -2.92903
 -6.04370
  2.87220
 -4.80397
  5.49799
  4.71669
 -5.24811
  2.49418
 -6.90225
  5.84032
  1.53280
 -4.81453
 -6.01207
  2.69687
  0.75317
  4.92126
 -4.71076
 -5.95066
 -1.57750
  2.59276
  3.79247
  2.02772
  0.70860
 -1.18429
 -1.06563
  7.24206
 -1.19310
  10.61333
  8.20618
  10.18449
  20.15219
  20.70174
 -1.41329
 -5.52014
  11.61608
  18.34249
  11.12005
  10.83403
 -4.49126
  0.69972
  8.53720
 -5.67083
  5.24832
  13.51418
  5.02003
  15.50806
  13.06819
 -3.53931
  2.28295
  3.70310
  6.59952
  0.88439
 -5.73032
 -1.02585
  16.16237
  14.56843
  8.61518
  7.81409
  12.87411
  16.12141
  13.23499
 -0.69972
  12.96279
  6.30686
 -0.03334
  8.63184
  3.56728
  3.53635
  6.41153
  6.83344
 -0.13935
  20.76343
  19.22970
  1.74241
  21.34260
  17.21746
  3.20449
 -0.08100
  3.98019
  7.92627
 -4.95556
  4.81333
  16.11745
  10.21700
  2.50383
  4.79902
  7.45607
  5.15258
 -4.91435
 -2.80829
  16.63497
  14.91896
  12.65819
  7.64902
 -4.59362
  2.60806
 -3.84260
  20.89499
  21.23513
  6.36083
 -5.92007
  14.86519
  10.05186
  2.26983
  7.52479
  6.00082
  8.55507
  19.98527
  6.04536
  15.29434
 -2.05685
 -4.02507
  6.49415
  3.99425
  1.13958
  6.51939
 -0.63084
  16.01277
  19.44590
 -0.21519
  13.61364
 -5.28274
  11.03458
  4.10319
  9.19186
  12.55126
  1.26672
 -0.62262
  1.31718
 -5.10900
  16.38400
  7.14310
  9.71108
  18.52736
 -1.61435
 -2.41506
  17.60350
  19.48494
 -6.26427
  5.37954
 -0.40915
  5.45900
 -6.55239
  12.45562
 -6.76046
 -6.73640
  5.68985
  12.28279
 -0.37097
 -0.02391
 -4.40404
  1.87150
  2.81310
 -2.37783
  18.30064
  8.49280
 -3.47253
  15.52418
  2.16449
  4.91804
  5.60868
  15.65233
 -7.43165
 -3.17613
 -1.95840
  17.66960
  16.32187
 -5.55384
  20.18215
 -6.86198
  8.51054
  11.13518
 -5.48976
  8.47012
  9.22367
 -5.15445
  5.31556
 -3.79765
  10.93591
  20.99354
  16.29673
 -6.41215
  18.57820
  1.28379
  1.25186
  6.58479
  10.90957
 -4.92447
  7.21895
 -4.66129
  4.42371
  11.07882
  7.26958
  3.92093
 -3.26618
  6.49626
  13.67949
  3.94232
  3.74777
 -3.39879
  12.24006
 -3.67793
  9.84919
  0.79214
 -4.92033
 -1.11564
  7.29375
  15.27291
  5.38967
  0.43697
  6.68377
  16.34856
  20.65475
 -5.06274
  2.68523
  4.41017
  16.99570
  4.49433
  12.53269
  19.91184
  2.77092
  10.75679
  6.34294
 -5.94197
  2.87048
  10.46634
 -4.90647
  10.87259
  19.79758
  20.95475
  6.73211
  6.00189
  8.00762
  3.97514
 -2.00512
 -3.10164
  3.91497
  13.51535
  15.34708
  12.90120
  3.02586
  12.00889
  13.54716
  0.96665
  8.00177
  18.97481
 -3.78794
  19.02356
  16.28155
  9.71180
 -3.22884
  15.50501
  13.89226
  14.94485
  20.28129
  2.49772
  1.18984
  13.33106
 -2.31733
  1.05446
  13.91430
  13.36910
  13.61633
 -1.61377
  8.18667
  7.02029
  17.48701
  9.31916
  12.32624
  18.59843
 -1.71058
  8.36941
  3.72343
  3.95888
  17.40815
 -5.47789
  13.13518
 -0.43264
  7.64499
  6.71584
  11.63724
  13.35429
 -5.45634
  6.54527
  19.87191
  10.72728
  2.94763
 -3.28008
  15.31979
  4.73516
  21.04488
  2.62312
 -6.11892
  12.10560
  16.37893
  12.89113
  3.75361
  6.95795
 -7.10196
 -6.69505
  20.49353
  20.56998
  12.60769
  12.13589
 -0.02449
  14.53556
  4.94980
  11.08672
  6.75508
  12.87026
 -1.00888
  7.17482
 -0.34821
 -5.70628
  17.19596
  10.61801
  14.18481
  6.21056
 -2.13475
  17.43577
  13.19273
  13.23775
  4.11525
  5.42098
  15.97972
  18.01943
  7.89735
  8.28943
 -2.20160
  19.69066
  6.87297
  7.85342
 -1.12878
  10.24182
  0.51365
  18.27117
 -1.01590
  16.93491
  12.71959
  14.85836
  11.69654
  2.00486
  7.69542
  1.23930
  11.69906
  4.21143
  13.89267
  10.96794
  6.59751
  3.66764
 -1.53652
 -6.47052
  0.96340
 -2.56440
  2.90918
  2.12947
 -3.99278
 -6.78238
 -6.58640
  3.85704
 -1.13796
  1.47618
  0.86170
 -2.04177
 -2.86164
  0.31866
 -1.36305
  2.65903
 -6.46408
  3.71068
 -1.37955
  3.30535
 -1.73354
  6.07878
  3.76612
  6.05707
  4.44609
 -3.79218
 -5.96659
 -6.10811
  2.55678
  15.08666
 -1.14886
  7.00738
  6.60166
  13.96153
  6.13330
 -7.28380
  0.15250
 -1.63939
 -3.26106
  7.07015
 -4.90277
  2.90841
 -0.14070
  2.15372
 -2.27239
 -0.44915
  3.89433
  0.39629
 -5.11591
 -4.20377
  5.27276
 -2.90546
  1.84533
  2.70224
  4.25610
 -5.34958
  6.34536
  4.61104
  6.23600
  5.19715
  2.85498
 -5.99851
  1.80712
  6.56441
  0.90459
 -7.27232
 -5.90294
  4.32897
 -3.11771
 -5.64896
 -2.21426
 -6.09653
  0.27258
 -6.28615
  2.57956
 -7.23782
  4.84750
  2.88329
  0.66836
 -2.16814
 -6.02032
 -1.11155
  7.23171
 -5.97579
  2.87109
  2.75242
 -4.61663
  4.32680
  4.76024
 -3.01792
  4.46656
 -3.72447
 -5.10584
 -2.19437
 -4.93878
 -5.18778
 -0.38811
 -5.70183
 -1.49291
 -2.14093
 -3.96714
  7.42675
 -6.49844
  3.25326
 -6.81495
  5.71900
  20.79331
  3.99239
 -6.76486
 -0.95509
 -0.95979
 -6.61064
 -5.37749
 -5.08686
  5.32339
  5.40507
 -1.08552
 -0.03793
  5.67275
  0.63494
 -4.58550
 -1.45781
 -5.67938
 -3.13689
 -5.39517
 -1.54802
  2.81016
 -1.77193
 -3.03639
  2.95992
 -2.75361
  0.11099
 -4.33158
 -5.19823
  5.57518
 -7.00201
  5.57009
 -3.40977
  6.88646
  4.88916
  3.74117
  6.63542
 -7.21536
  2.82564
  6.21288
 -0.30449
 -2.29008
  0.44377
  0.53411
  2.22111
 -0.95532
  2.25876
 -1.69851
  3.34536
  0.70002
 -6.98658
 -4.12285
  3.98395
  5.68000
  4.18028
  5.38950
  6.49491
 -6.52067
 -0.29922
  0.80469
 -3.94140
  3.33505
  0.17834
  5.01999
  3.85617
 -3.87998
 -6.53994
 -7.45155
 -5.57600
  3.85960
  0.54413
 -1.57067
  6.75991
  5.85256
 -3.80000
 -3.30184
  1.07095
  3.51397
  3.09857
  4.22262
 -2.67819
  7.34884
  3.67946
  4.84835
 -4.00803
  5.49431
 -2.34103
 -5.22905
  1.49741
 -4.29489
 -6.95237
 -2.81921
 -3.38569
  1.09340
  6.73508
 -5.67649
 -5.18179
  5.04738
 -6.08422
  3.85533
  2.97285
 -7.02524
 -3.60971
 -5.30879
  3.01747
  4.98615
 -6.89888
 -6.82635
  3.86083
  7.10879
  3.13689
 -6.95928
 -6.91051
  2.26791
  3.58359
 -5.16649
  6.07971
  1.06205
 -7.38377
 -5.20911
 -4.04069
  7.22251
 -5.69144
  3.96196
  7.21777
 -3.93180
  6.18871
 -6.96108
  1.01154
  3.40788
 -3.02189
  1.72520
  0.89709
 -4.25102
 -6.29044
  0.26724
  2.91359
  1.18065
 -0.58064
  4.14015
 -4.06894
  1.89513
  5.07509
 -3.98579
  4.50261
 -1.01894
 -0.27783
 -7.29953
  3.54204
 -0.36129
  3.32735
 -1.12462
 -2.67327
 -7.28970
  3.30066
  7.40033
 -5.78318
 -2.21489
  5.99715
 -4.55467
  4.03696
 -2.18852
  3.25392
  6.73477
 -6.29065
 -2.40750
  4.38147
  3.89840
 -4.71353
  4.55642
 -0.29112
 -5.92782
 -1.21683
  1.78863
 -5.26337
 -4.64297
 -2.70062
 -5.14659
  0.87602
 -1.67499
 -1.52355
 -6.17568
  2.94874
  3.32468
 -1.16047
 -2.47016
  6.44774
  6.03855
 -1.78015
 -0.12522
 -1.21178
  6.43338
 -0.62646
  1.40792
  1.23668
 -4.68941
  5.78399
  1.66683
  1.06150
  5.16727
  2.63993
 -6.81561
  0.61241
  6.64605
 -2.87006
  2.06279
 -1.70014
  5.50923
  7.20039
 -5.20548
  0.97258
 -5.35800
 -0.33551
 -2.11777
  0.73384
  6.54438
 -2.47945
  4.21217
  1.70933
  0.85492
 -0.31297
  3.12285
 -5.76671
  3.36279
  3.00889
  4.79118
 -6.46346
  5.57266
 -2.33785
  7.18667
 -0.06633
  2.54650
 -1.64802
  6.14010
  4.91200
  3.35880
  5.51842
  0.35032
  5.80233
  0.96694
 -6.49859
  7.02390
  3.33739
 -5.30216
 -4.50022
 -6.79826
 -4.89427
  1.07166
 -1.80466
  2.06335
 -4.92751
  7.06447
 -0.39791
  6.81653
  6.93382
 -1.46903
  6.79810
 -0.03389
 -1.31199
  8.38976
  3.33817
 -0.57682
  3.73562
 -6.30322
 -5.93056
 -7.24983
 -0.74923
 -5.27618
  4.89056
  3.77204
 -0.76342
  4.93395
 -3.46247
 -6.57388
 -3.80160
 -3.68362
  1.47035
  5.96880
 -6.91173
 -4.67645
 -2.48881
 -0.79474
  6.99016
 -5.83008
  4.40388
  5.85886
  5.74113
  7.09862
 -4.52388
 -4.56057
 -3.44159
  2.98726
 -0.51340
  2.77707
 -1.95583
  0.55844
 -3.71306
  4.47163
  5.76864
  0.66920
  7.22169
 -6.53097
  0.06188
  2.31763
  4.27887
 -3.92018
 -2.96133
 -3.60781
 -4.64130
 -0.07805
  3.01712
 -5.18791
 -6.79475
 -5.79046
  2.92197
 -0.83315
  1.77916
 -6.49707
 -0.93294
 -5.87548
  6.71371
  4.76005
  5.52961
 -1.50320
 -5.90039
  6.45130
 -2.96421
 -0.32695
 -2.21348
  3.33609
 -5.71221
  3.34602
  7.01695
  6.92003
 -2.66600
  5.73171
 -6.39546
 -1.06128
  2.32075
 -1.13437
 -0.15626
  6.10824
 -6.15187
  3.00619
 -4.41603
 -2.51994
  3.69257
 -6.23502
  0.38059
 -7.18557
 -6.56224
 -6.71842
  5.35395
  5.76523
 -2.15855
 -7.16673
  3.93809
 -7.03054
  1.84180
 -1.66839
 -4.02797
  2.42065
  1.57966
  6.57637
 -6.13051
 -5.01427
  3.46822
 -5.11010
 -4.26056
  0.97412
 -0.26747
  7.14841
 -4.84030
  2.23610
  2.02256
  7.17770
  2.70986
 -1.59856
  0.28431
  4.64515
 -1.10930
  5.50771
  1.10381
  3.82402
 -1.82834
 -4.00137
  4.58540
  2.94382
  5.00680
  4.97508
 -3.59119
  4.42699
  0.94745
 -3.42619
  0.85763
 -3.68566
  1.41637
 -2.90514
 -6.91551
  3.43000
  10.74181
  19.65814
  9.34540
 -1.95224
 -0.16116
 -0.54373
  16.68163
  7.14962
  16.94529
  6.81328
  7.40601
  9.03406
  20.23546
  12.21313
  15.10713
  16.99920
 -0.61618
  8.29424
  7.28329
  18.07385
  2.10723
  1.29998
 -7.05512
  3.15507
 -1.84372
 -2.69432
  0.67765
