# vtk DataFile Version 3.0
Surface Data
ASCII
DATASET POLYDATA

POINTS  1003 float
 8.854539 -3.002101 -11.552732
 7.977647 -7.339030 -11.258302
 3.476815 -7.075205 -20.268232
 6.664588 -2.142943 -16.628798
 4.225344  0.000067  0.413047
 0.671827 -18.510038 -11.664256
 2.929725 -5.054301 -3.751667
 7.111119 -9.394399 -12.674882
 6.882455 -9.798383 -10.294654
 6.602754 -10.005242 -14.205760
 8.745096 -5.161354 -11.652030
 8.045987 -7.235242 -13.188212
 8.575750 -4.794033 -13.359910
 1.846038 -9.499189 -20.068468
 4.684569 -11.087574 -18.217403
 5.745976 -9.270967 -17.547012
 6.548693  4.667085 -2.610700
 6.909513 -0.544708 -3.351367
 8.419325  1.361251 -6.449042
 6.167147 -2.040148 -5.282614
 8.872639 -1.242936 -8.918516
-3.192365 -11.090800 -19.590790
 5.747777 -11.457227 -8.520554
 2.697802 -16.173113 -7.253675
-1.796337 -12.404930 -2.360304
 6.674922 -10.784549 -10.799199
 6.686586 -10.671405 -12.434915
 6.284064 -12.076421 -12.060054
 7.500070 -8.584356 -11.909812
 5.360990 -12.847169 -15.580453
 7.087926 -8.714710 -14.168270
 6.350547 -10.145832 -15.101500
 6.366231 -9.430092 -15.865480
 6.012143 -11.525624 -14.816650
 6.177445 -11.671985 -13.839758
 8.722791 -3.737420 -12.690800
 7.905718 -6.992269 -14.094641
 7.115896 -9.052152 -13.485383
 7.601608 -8.232265 -12.899593
 1.483492 -4.215237 -21.833990
 4.123507 -9.175670 -19.053581
 3.018886 -10.009869 -19.392649
 3.036762 -8.390104 -19.960131
 0.807160 -9.375417 -20.539057
 6.360489  2.703122 -13.716162
 8.478746 -1.254142 -12.097681
 6.821846 -1.358485 -15.903419
 7.589987 -1.595713 -14.549347
 7.526775 -2.700475 -15.236365
 7.932920 -0.044190 -12.691339
 8.047323 -1.162775 -13.283651
 7.591811 -0.460179 -13.747235
 5.268538  0.380753 -17.696665
 6.016962 -2.128359 -17.890789
 5.649729 -0.760453 -17.844431
 6.677211 -0.437109 -15.558467
 4.788945 -12.070084 -17.555685
 4.919069 -8.573082 -18.626505
 5.630125 -10.587746 -17.170973
 5.927622 -3.326866 -18.345201
 8.410539 -3.807601 -13.713158
 8.159024 -5.123903 -14.474831
 7.947869 -3.462517 -14.686448
 7.017323 -2.976804 -16.252560
 5.987786 -6.052024 -17.803379
 6.432739 -4.976256 -17.330517
 6.370757 -6.812547 -17.108210
 4.603833  2.605648  0.767568
 6.038781 -1.225294 -3.871094
 7.509051  3.161920 -4.306756
 5.670008  0.065229 -1.017281
 6.906432  2.722279 -1.609842
 8.256812 -1.124014 -4.972520
 7.867748  0.610227 -3.288512
 4.936471 -1.786814 -3.495955
 6.495380 -9.887042 -9.299698
 7.773346 -7.120812 -10.190327
 7.130110 -8.380465 -9.779243
 6.621408 -8.294200 -8.928246
 5.919891 -8.196191 -8.227987
 8.905042 -3.660322 -10.957069
 7.895617 -4.842475 -8.387628
 8.652871 -5.376074 -10.803941
 8.321918 -6.143685 -10.554308
 5.245329 -5.150218 -6.901893
 6.015217 -6.176730 -7.796917
 8.918169 -2.371331 -10.319750
 8.266047 -0.149757 -11.923613
 5.313060 -2.440951 -5.064550
 8.422879  0.838047 -10.008403
 8.359573 -2.027207 -6.168908
 1.769992 -13.116133 -18.874718
 6.280145 -11.529548 -9.834759
 5.574136 -13.255914 -8.946806
 6.290016 -12.078730 -11.015410
 5.876238 -13.150743 -10.218381
 5.523173 -13.419550 -14.351792
-7.024358 -10.347648 -3.056736
-7.209220 -11.930458 -3.845499
-7.307076 -18.958277 -11.703179
-8.879382 -12.815304 -13.200525
 3.546198 -14.723905 -6.858606
 0.834821 -16.011656 -4.911153
-0.570169 -15.169749 -3.720848
 1.365447 -17.888906 -9.027892
-4.447279 -16.834372 -4.070127
 4.141762 -15.974904 -9.646023
 4.148624 -16.034910 -14.471582
 5.247149 -10.264627 -7.795678
 3.727419 -8.709063 -6.505095
 3.103705 -10.491129 -6.118321
-3.022370 -11.203604 -1.267449
 2.260032 -13.520203 -5.307341
 1.117883 -13.942452 -4.544573
 4.117623 -3.436617 -4.343800
 1.189543 -2.174813 -21.474495
-3.229929 -0.712434 -0.793985
-8.196043 -6.989809 -17.516241
-8.603459  1.250510 -9.924922
 2.998655 -3.636907 -2.554425
-7.789920  1.261314 -13.381057
-6.389147  0.382173 -17.530302
-2.302195 -9.809470 -20.639963
-6.732529 -3.648789 -18.628311
-5.589752 -5.421266 -19.633142
-5.834872 -7.122107 -19.345278
-5.133042 -2.910528 -19.447382
-1.633037 -4.736172 -21.503220
 5.639426  3.236010 -14.893865
 4.805560  3.440813 -16.186834
 3.134075  5.931663 -15.457737
 3.691317  2.514564 -18.129587
 3.199694  4.117180 -17.398956
 2.156056 -1.414268  0.335461
 4.157280  6.166281 -0.381066
-6.288064  4.112281 -11.907626
-8.917551 -0.174214 -12.135746
-8.711977 -0.933890 -14.091606
-9.134441 -2.697912 -14.949822
-10.851375 -9.874689 -6.250490
-8.014319  0.994770 -6.310372
-1.094016 -10.705280 -1.969904
-4.826937 -1.809040 -1.838793
-1.632532 -9.189145 -0.432794
-8.074824 -2.355496 -4.379827
-10.882661 -6.745789 -5.103138
 5.740778 -4.180578 -18.599781
 5.286713 -4.785635 -19.158403
 7.245454 -5.732902 -16.045866
 8.635867 -1.975016 -7.086351
 7.056837 -4.861057 -16.397959
-2.236256  3.716573 -17.378382
-5.394401 -5.132141 -1.465591
 8.324848 -3.333265 -7.569291
 6.670630 -5.824405 -16.878567
 5.426890 -6.815011 -18.409555
 7.790236 -3.852883 -7.418187
 4.639309 -14.755032 -15.160604
 5.376273 -9.221420 -18.101744
 7.700475 -5.735547 -15.307144
-3.319741  4.142253 -16.633671
 0.539443 -9.939531 -3.305793
 5.319033 -3.692313 -19.389612
 0.154840  1.264934 -20.058704
 6.867797 -6.477690 -16.456499
 8.024158 -2.867649 -6.629094
-4.615080  2.179703 -17.869236
-6.663332 -2.760925 -3.368448
 4.912093 -7.399063 -18.880047
 3.733816 -6.199793 -5.655029
-3.431638 -1.765324 -19.852518
 5.379355 -14.438644 -13.180156
-6.940861 -1.671628 -3.732547
 7.288728 -6.665518 -15.674789
 7.943841 -1.993362 -5.617144
 6.124123 -8.042218 -17.177351
 6.216318 -4.103638 -17.776051
 7.369010 -3.808120 -15.821242
 6.466710 -3.125237 -17.294380
 6.077292 -9.348662 -16.799068
 5.313241 -10.369034 -17.854059
 8.110036 -4.318799 -14.608620
 4.588492 -3.648512 -20.392574
 5.204318 -14.607234 -9.850264
 6.928846 -7.940793 -15.551138
 4.327893 -6.704816 -19.683857
-2.372028 -1.712363 -20.246250
 4.785010 -4.484723 -19.961857
 8.703720 -3.337587 -8.723739
 4.882154 -9.840882 -18.413366
 7.868758 -6.283079 -14.766584
 5.753948 -3.237540 -6.250344
 4.192618 -7.853536 -19.395128
 7.502607 -7.144456 -14.954119
 6.362113 -4.153237 -7.054174
-6.451867  1.214323 -4.260085
-0.472537 -1.260045 -20.827919
-2.084768  7.830343 -10.473360
 7.826532 -0.892540 -4.343730
-2.967495  4.693286 -3.882329
-8.176889 -0.542566 -5.122231
 8.315070 -5.908759 -13.871198
 4.825926 -3.928716 -5.902896
-2.577231  5.221629 -15.566355
-9.371210 -3.922437 -14.846060
 8.693184 -0.567474 -6.664582
 5.552914 -2.697225 -18.998329
 1.157815  1.026838 -20.308182
-5.721397  1.717096 -17.458433
 5.933395 -10.460219 -16.469017
 7.915717 -2.277717 -14.287061
 8.289438 -2.428885 -13.453311
 5.403605 -11.886173 -16.568193
 4.110605 -15.265830 -8.192904
-11.470886 -6.786893 -9.287490
-11.522359 -6.526061 -6.074795
 7.320937 -7.912296 -14.572385
 6.344944 -1.144464 -16.729025
 1.190087  3.162013 -18.621918
 2.418092  0.995110 -20.106535
 6.783216 -8.958757 -14.896561
 7.149941 -1.975365 -15.607194
-5.603794  1.955868 -3.864747
 8.387414 -4.429142 -8.794003
 4.024984 -10.649805 -18.750345
 8.426795  0.293726 -5.131690
 8.178591  1.519357 -4.719366
 3.029487  8.304175 -5.123883
 8.339192 -6.449617 -13.364965
-1.738895  5.066905 -2.754517
 5.146531 -1.603813 -19.210865
 0.309561 -3.195375 -21.589712
 3.534506 -2.164566 -20.992752
 1.546455 -17.027452 -6.924326
 5.938558 -11.049693 -15.755936
 4.885788 -13.365290 -7.806603
 7.675608  1.783805 -11.094267
 5.328492  5.789727 -11.590891
 2.611703 -12.129304 -5.644659
 8.645279 -2.583513 -12.381022
 3.170717 -13.036646 -5.964987
 7.735187  2.883262 -6.044827
 3.705093 -11.866286 -6.479851
 5.629261  6.213669 -6.560750
 8.806200 -4.355897 -12.226981
 2.294246 -15.619512 -5.989914
 2.908267 -14.225912 -5.889367
 1.725726 -14.935962 -5.091254
-6.666729 -5.060460 -18.895769
 6.599329  3.326243 -12.213873
 3.904996 -13.220017 -6.638084
 6.790191  4.467370 -4.269503
 8.616169 -5.557255 -12.888012
 2.907792 -11.464122 -19.030451
 1.274100 -16.581083 -5.798322
 7.551167 -7.984942 -13.743789
 7.166661 -0.935430 -14.930897
 2.229564  4.207503 -17.655405
-3.783062  1.322332 -1.753433
 1.772375 -6.902074 -21.430298
-7.387017  2.050730 -6.783593
 2.547181 -8.853815 -5.316592
 8.815865 -4.216090 -10.268356
 2.840249 -4.453907 -21.500519
-6.789855 -7.754081 -18.502579
 1.512565 -12.674268 -4.846087
 7.776962  1.949889 -3.431438
 4.734145 -0.127301 -18.867393
-7.234646  0.499752 -16.429068
 1.590747 -15.838245 -5.342122
-5.830472 -3.982382 -19.310150
-11.567472 -4.898736 -7.402064
-7.505834 -0.617093 -16.821857
 7.343874  3.109258 -3.081193
 5.891041 -12.932807 -13.424879
-8.978601 -1.845917 -14.533122
 6.953690  0.738722 -2.042250
 3.609828  0.611172 -19.595207
-6.515153 -6.344715 -19.018116
 5.285958 -13.748372 -8.344018
 8.568654 -4.885748 -9.791797
-0.555054 -4.250012 -21.730381
 1.555627 -11.200616 -19.562458
-4.557865 -5.065288 -20.240799
 8.450108 -6.379931 -12.541317
 7.637353  1.280570 -12.004805
 1.570132 -8.211338 -20.828548
 7.083490 -5.082339 -7.895254
 0.492445 -15.110522 -4.304363
 8.440537 -6.319648 -11.563721
 5.825490  4.362028 -0.565519
-8.567563 -1.159389 -15.098948
 6.666612 -10.379228 -13.258339
 8.111369 -5.691321 -9.488510
-1.533530 -6.264675 -21.744251
 3.158453  4.965046 -16.619028
-0.518203 -16.249117 -4.264721
 5.478166 -0.875483 -2.482260
 6.013134  0.147763 -16.490143
 5.934246 -13.087195 -12.667330
 3.854708  3.422698 -17.359291
 7.591089  0.635915 -12.794556
 4.339631 -10.276856 -7.076816
-4.371891  4.058687 -4.839240
 4.347379  1.330297 -18.269453
 6.238200  1.478095 -0.741717
 1.809303  4.476005  1.214702
 0.655970 -5.493895 -22.025953
 2.147342  6.230359 -15.289049
 0.797977 -10.304541 -20.109945
 4.891844 -7.829215 -7.306646
 5.200026  0.915621  0.061082
 2.813965  1.743206  1.405719
-5.451101  4.953802 -12.555082
 3.070744  6.805066 -14.000099
 8.062286 -7.352087 -12.271706
-3.929488 -15.786798 -3.397206
-3.578195 -6.799798 -20.836988
 4.107855  5.343367 -15.316130
 6.285215 -11.797588 -12.956711
-0.272698 -6.723358 -21.938248
[...]
POINT_DATA  1003
SCALARS atrophy float 1
LOOKUP_TABLE default
  21.23087
  15.58992
 -1.09900
  14.73146
 -1.72082
  5.66457
 -3.97996
  18.76193
  21.34469
  12.99025
  15.41146
  18.37813
  13.46750
  5.28554
  4.95962
  10.86219
  20.78163
  20.53112
  25.83023
  26.14333
  26.10077
  0.85960
  13.59478
  6.87844
 -1.89070
  15.78194
  24.00486
  21.90327
  26.54328
  24.42438
  17.54866
  18.85757
  26.03954
  20.39479
  26.55438
  25.59144
  18.33348
  24.13789
  26.56642
  0.42342
  0.96712
  4.78625
  5.25633
 -2.15311
  18.15588
  25.64962
  22.69826
  19.73428
  22.82051
  16.98845
  19.02803
  24.26169
  22.07052
  13.18769
  21.63298
  24.05761
 -5.29847
  3.72555
  22.12278
  20.08450
  24.23561
  19.05381
  26.26433
  26.69907
  21.29496
  21.12207
  26.68160
  1.63320
  22.69811
  13.07925
  13.20182
  18.39210
  22.06586
  21.01447
  7.58647
  13.91413
  25.58855
  13.29533
  25.16562
  26.28137
  15.13507
  26.49972
  26.35705
  14.80377
  25.21768
  17.58032
  25.55623
  17.50548
  25.43036
  15.80012
  24.28931
 -5.36246
  25.42657
  16.26677
  22.26798
  24.35801
  20.77369
  3.99566
  0.56543
  7.17524
 -4.29448
  1.02433
  3.24112
 -5.65940
 -4.13240
  6.35539
  0.10104
  1.75689
  23.19055
  5.57742
  5.99341
  1.79547
  3.34045
 -3.75102
 -5.66846
 -6.44443
 -4.34793
  2.37641
 -6.96853
 -2.70477
  3.51419
 -6.35356
  5.52899
 -0.30509
  3.77757
 -3.73681
 -3.31529
 -3.87882
  13.73892
 -3.37092
 -6.39163
  1.90929
 -4.54789
 -4.38045
 -4.28137
  4.71054
  7.17992
 -5.79268
 -4.96662
  3.73138
  6.70448
  1.21443
  5.97440
 -5.90481
  4.39385
  5.96508
  23.00376
  16.82285
  23.60343
  19.48878
  15.13929
  4.15457
 -3.38254
  22.46048
  19.96423
  21.92191
  21.87619
  3.97540
  4.76349
  26.10483
  5.91930
 -0.42799
  24.79368
 -4.11787
  25.00269
  23.14294
  1.25811
  2.05717
 -0.90513
 -4.61820
  6.93276
  5.82077
 -0.18507
  13.07515
  16.72068
  24.84794
  22.88558
  21.03038
  14.35923
  23.87593
  7.57849
  14.53854
 -3.65355
  6.34359
  15.46825
  7.38521
 -2.15978
  3.72037
  20.39884
 -2.43506
  17.94163
  26.44622
  0.95090
  26.00612
  24.15239
 -7.26481
 -1.12057
 -6.57698
  20.38973
 -4.41278
  0.38129
  18.87158
  18.06782
  2.73989
  4.37884
  21.65873
  20.23271
 -6.81994
 -6.74457
  25.12842
  12.58591
  20.49616
  2.24893
 -3.07501
 -6.14719
 -6.87652
  23.73284
  15.06541
 -5.74929
 -3.25132
  25.83388
  24.08224
 -4.89520
  22.23282
  6.31409
  18.28344
  26.06740
  6.62551
  23.53146
  2.30896
  5.10068
  0.43757
 -4.79052
 -1.80781
  14.36569
 -2.47856
  17.85185
  22.28754
 -6.24867
  16.93999
 -2.13323
  17.96655
 -4.98824
  17.66534
  14.12770
  3.74990
 -1.74273
  3.47307
 -3.72814
  22.46966
 -1.58515
  15.86078
  17.14096
  6.60771
 -6.33853
  13.83605
  26.65458
 -5.83205
 -4.98880
  1.82901
 -0.09209
  6.15823
  25.84721
 -2.69711
  3.76681
 -6.68814
  17.06238
 -2.35209
 -3.78680
  6.59137
  6.01450
 -2.09387
  4.83329
  15.26222
  21.57862
  6.66439
  13.77065
  3.91949
  0.95905
 -0.26140
  15.38572
 -7.30629
  7.35010
  0.66082
  20.84651
  22.64417
  1.39193
  22.17598
  4.77975
  13.19168
  20.71431
  1.64379
  23.98431
  17.90658
 -0.16496
  5.46181
 -5.61734
  17.97328
  16.49669
  23.22337
  0.13420
  17.83614
 -1.67159
 -5.28609
  5.22816
  16.79875
  0.05232
  0.76749
 -1.41050
  3.52286
  20.43673
  15.26466
  1.71994
 -4.91140
 -6.25472
  25.97637
 -3.39992
 -1.79961
  0.19056
  18.39004
  5.00360
  13.16000
  2.04932
  5.85002
 -3.89277
  4.39137
  26.99492
  1.33604
 -6.46837
 -7.42694
  15.64850
  18.13442
  1.71092
  5.00295
 -0.57613
  14.61925
 -7.33329
  23.54870
  17.95339
  1.63478
  18.28889
  1.73478
 -4.08497
  8.25469
  15.70336
 -4.23201
  23.40180
  16.26461
  27.17108
  19.35249
  2.68213
  22.54452
 -4.61578
  2.83345
  3.74055
 -0.66069
  24.89100
  26.75791
  12.66930
 -2.55673
  17.29686
  23.13729
  3.82037
  21.47545
  16.15042
 -0.01436
  21.24582
  18.27418
  17.00992
  6.24196
  19.47281
  16.22232
  13.71500
  16.03319
  2.63989
  2.27607
  13.57663
 -2.49070
 -6.68638
  17.80009
  25.46018
  25.89269
 -4.54999
  22.91103
  14.34950
  14.33375
  22.52229
  15.36877
  22.35430
  1.82329
  15.80718
  6.96476
  5.98276
  15.17442
  2.64966
  16.91798
 -4.49160
  4.45923
  21.40397
  24.41463
  17.23113
  5.84855
  22.41236
  26.72475
  26.65403
  4.94773
 -3.26689
  24.77513
  6.11571
  18.38221
  1.03449
 -1.73505
  22.48166
  20.87225
  23.28516
  5.76324
  7.97774
 -5.87849
 -7.10335
  15.79652
  26.65777
  18.80167
  13.78188
  2.52875
  25.03290
 -2.34359
  16.22422
  13.61185
  13.85764
 -3.03367
  23.41055
 -0.66013
  2.43205
  13.38493
  25.44905
  19.51528
  2.77016
  3.58758
  14.91405
  14.76913
  25.70319
  3.26783
 -6.69579
  13.26510
  24.66299
  24.48177
  22.48197
  0.03353
  22.61888
 -7.26507
  13.49229
 -5.42365
  15.35312
 -3.50649
  11.98416
  5.03410
  20.47858
  24.32156
  20.65825
  19.03446
 -1.69986
  16.14898
 -0.88447
  25.66933
  3.97563
  24.85625
  14.77556
  22.49463
  5.83633
 -5.09364
 -6.82406
  1.11968
 -2.04328
 -1.73860
  6.10171
 -1.48072
  2.01183
  1.28093
  6.14919
  6.09396
  3.51877
  5.46762
 -0.88677
 -5.09675
  6.80854
 -2.50891
 -0.92057
  3.55868
 -5.90798
 -0.27671
  1.88435
 -4.86653
 -4.09766
 -6.70079
 -0.67381
  2.25132
 -5.22472
 -3.97709
 -5.37493
 -6.58248
  24.18581
  5.02649
  3.54879
  1.71016
  21.82277
  6.42316
  3.24932
 -0.85125
  0.22481
  1.70419
  16.66668
 -6.67900
  2.26991
 -1.87821
  1.40778
  1.46011
  5.20831
 -3.66614
  6.53357
  5.70949
  4.89402
  4.61562
 -6.78491
  6.68035
 -0.80672
  0.52711
  4.36249
  4.03066
 -0.97448
 -1.87033
  5.87151
 -1.63458
  0.65760
  3.59584
  1.69301
 -6.48901
 -4.99563
 -0.93578
 -6.06894
  6.18502
  1.77973
 -6.79140
 -5.73759
 -7.29949
 -0.00904
 -6.28675
  6.05074
  7.27742
 -6.46817
  1.67768
 -2.75045
  5.44516
 -7.39237
  3.22211
  5.60327
 -0.14134
  1.00244
 -2.08514
 -2.38599
  5.15223
 -3.03395
 -3.18265
 -5.22223
 -6.31306
 -1.15469
 -0.12333
  2.89267
 -0.00598
  6.20149
 -2.82219
  2.20223
 -6.05657
  0.23648
 -5.97782
 -6.47944
 -2.68586
  3.55655
  22.28809
 -1.88827
  2.11495
  2.92939
 -2.49981
 -0.88398
 -1.78404
 -5.71964
 -3.78860
 -7.27218
 -6.93788
  1.70080
 -1.02056
 -7.43046
  2.27008
 -5.83414
 -6.66035
 -0.76658
  6.83239
 -4.88479
 -6.42978
  0.37408
  0.61645
  2.42498
 -0.11534
  0.34565
 -1.36066
 -2.66336
  5.39388
 -3.79998
 -0.23563
  5.95013
 -3.82172
 -6.87824
 -3.35140
  4.84180
  1.46457
  1.58329
  4.31989
 -5.17122
  5.92839
 -5.50628
 -0.80507
 -6.46348
 -3.37948
  3.10450
  1.45704
 -7.15613
  1.70710
 -4.57730
 -4.20254
 -3.46705
 -0.51537
  6.65982
  0.41421
 -4.24175
 -2.18972
 -7.38665
  6.10009
 -4.91732
  4.94202
 -4.73330
  1.93110
 -0.36500
  6.84674
  4.48854
 -6.23941
 -7.18846
 -2.10736
  2.10191
  5.83728
 -5.73695
  0.06937
  4.07714
  0.90791
 -0.17357
 -5.91000
 -7.24010
  7.32800
 -0.47911
  4.25717
 -1.29928
  6.28377
  2.41653
  2.36194
 -3.03702
 -0.03932
 -3.12665
  2.04980
 -7.20377
  4.80632
 -2.89828
 -4.60080
  2.39283
 -0.16712
  1.00894
 -6.98452
 -1.15577
  2.74185
 -4.21633
  2.31811
  1.51714
 -6.14475
  0.48448
  1.74739
 -3.22514
  3.31702
  1.31574
  2.02636
 -4.73694
 -0.87123
 -4.73902
  6.27086
  4.81408
 -3.52745
 -6.31282
 -0.29936
 -7.12145
 -5.66324
  5.05772
  4.87005
  5.47983
 -4.10313
  3.18515
  1.31272
 -3.00631
  6.24095
 -6.53994
  6.40293
  6.53142
 -5.94472
 -5.97667
  1.20539
 -4.40828
  4.97422
  4.47722
 -4.39009
  2.80166
 -5.58093
 -6.22858
  1.26694
  4.69967
 -0.33192
 -7.15905
 -6.61290
 -6.04319
 -1.11011
  1.35028
 -4.77992
 -3.25600
 -4.85095
 -5.67588
  1.80225
 -2.40482
 -7.17264
 -3.16601
 -2.60031
 -0.16949
  4.90292
 -3.80228
 -5.61696
 -2.58689
 -4.42922
  2.92811
 -4.29923
  6.27378
 -6.31724
 -2.82261
 -6.25736
 -5.53259
 -0.84256
 -5.06695
 -1.07635
  2.08343
  3.11020
  2.73452
 -5.11900
 -3.40652
  3.99944
  5.25006
 -4.35741
  6.05457
  4.11032
  3.36003
 -2.30820
 -4.02170
 -1.06640
 -7.06262
  4.39513
  1.11149
 -6.32495
  4.81631
 -7.09831
  5.85034
 -5.36321
  4.83757
 -5.85321
 -3.10032
  5.94619
 -2.59611
  2.33559
 -2.67555
 -6.18606
 -0.48961
 -3.17327
  4.15330
  6.33784
  4.16263
  7.30020
  6.83810
 -0.35488
  6.73654
  1.98075
  2.12900
 -2.40437
 -1.83345
 -1.93242
  0.81015
  1.86327
 -1.14039
 -2.97527
 -6.57709
 -1.48915
  3.51235
  0.77002
 -3.90335
  6.38400
  4.88070
 -6.17561
 -5.47591
 -1.25653
 -5.13760
 -0.64618
  3.76236
 -1.45256
  6.48380
 -0.54878
 -4.94937
  3.63239
 -4.37985
 -5.81203
 -4.49651
  7.41327
  6.01740
  6.99332
 -1.08517
 -7.35193
 -5.88613
 -7.41023
  6.39295
  4.02032
 -4.42258
 -6.00806
 -7.22454
 -5.37115
  1.05036
 -6.06659
 -7.45276
  3.35903
  6.62299
  2.09379
 -2.61684
 -6.83514
 -7.22230
 -2.44665
  2.70383
 -3.69912
 -1.03281
  4.39141
 -3.96557
 -5.83036
  4.62834
 -2.13836
 -0.94420
 -5.32340
 -3.17924
  4.58382
 -1.50186
 -4.41959
 -3.77709
  0.63035
  5.15608
  2.26055
 -4.30058
 -6.10353
  1.50016
  7.06826
 -2.98494
  3.44546
 -2.29536
 -5.48826
 -6.06071
  1.39087
 -6.37026
 -4.41545
  2.11802
 -5.75964
  5.37643
 -0.97091
  6.48318
 -7.47598
  7.08294
 -5.03593
 -2.58468
 -6.87077
  3.58491
 -1.23023
 -6.83419
  4.20251
  4.03809
 -4.44618
  3.36075
 -3.39272
  2.54776
 -4.79510
  0.46745
 -2.28400
 -0.91824
  5.41425
 -2.56757
  5.46769
  4.76745
 -0.47438
  2.82176
 -4.11296
 -3.44097
  6.17660
 -3.48993
  2.58400
 -4.31646
 -3.12713
  2.23310
 -7.29806
  5.05587
 -5.58141
  2.84707
  3.77071
 -4.66179
 -4.30277
  6.49589
  4.91571
  2.34421
 -2.14978
 -4.82384
  4.57205
  3.98566
 -0.70186
  0.38723
  6.03011
 -5.12388
  3.78163
 -4.77334
  5.47869
 -4.87489
  0.09974
  7.15434
  4.15852
 -0.89047
 -7.35679
  6.49963
  5.16474
 -5.71012
 -3.98383
 -0.49994
  1.12205
  4.30281
  6.33963
 -0.61074
  2.22033
 -3.01459
 -6.19573
 -1.86725
 -1.09363
  4.42486
  4.26302
  5.75129
 -1.48366
  1.48888
 -1.91633
  5.23746
 -6.74978
 -4.93650
  4.24331
  7.28273
  0.84852
 -0.31821
 -1.27668
  4.61638
  1.18687
  6.29320
  0.16330
 -1.30704
 -1.47485
 -3.63498
  2.38589
 -7.23855
 -6.52734
 -0.17394
  3.51172
  14.56411
  15.09935
  18.08071
  4.29371
  0.50425
 -6.33360
  17.71345
  24.83648
  26.54918
  21.53085
  18.86786
  10.44285
  26.21010
  16.30978
  16.97584
  15.86648
 -4.75620
  23.46976
  25.15099
  23.49409
  3.33223
 -7.43503
 -5.12974
  1.83779
 -0.33163
  1.21805
 -6.77297
