# vtk DataFile Version 3.0
Surface Data
ASCII
DATASET POLYDATA

POINTS  1003 float
 9.949686 -2.922207 -11.700235
 8.989454 -7.779996 -11.159173
 3.665428 -7.341587 -21.006426
 7.123549 -1.878948 -17.058178
 4.366445 -0.089201  0.739842
 0.698619 -18.955074 -11.835857
 2.429136 -5.577732 -4.206796
 7.885927 -9.807334 -12.858015
 7.631541 -10.149123 -10.164660
 7.232683 -10.222761 -14.367992
 9.839334 -5.318929 -11.670928
 9.047761 -7.678322 -13.413267
 9.552159 -4.795091 -13.612944
 1.664878 -9.960120 -20.336199
 4.226056 -11.239209 -18.614296
 5.880584 -9.429529 -18.255627
 6.871156  5.292973 -2.351368
 7.755132 -1.260566 -2.328601
 9.546581  1.533752 -6.346319
 6.856275 -3.177869 -3.919509
 10.031765 -1.218053 -8.890947
-2.959629 -11.180852 -19.785648
 6.411964 -11.823106 -8.022529
 2.708298 -16.224745 -6.871310
-1.539416 -11.392058 -3.447635
 7.206820 -10.997549 -10.807117
 7.211112 -10.839800 -12.551376
 6.523426 -11.969558 -12.042781
 8.389833 -9.053857 -11.987134
 5.484143 -12.560687 -15.276000
 7.908237 -9.159078 -14.467031
 6.868961 -10.259016 -15.216508
 6.858088 -9.583554 -16.096525
 6.370734 -11.409813 -14.730790
 6.549113 -11.552235 -13.791151
 9.751544 -3.654463 -12.922451
 8.826360 -7.349268 -14.402909
 7.935797 -9.499202 -13.735273
 8.538660 -8.746812 -13.108882
 1.462865 -4.121028 -21.216288
 3.873152 -9.559464 -19.999237
 2.658022 -10.441612 -19.882088
 2.929942 -8.787262 -20.634821
 0.777694 -9.765705 -20.547283
 6.568149  2.769137 -13.742272
 9.446600 -1.046802 -12.360566
 7.325114 -1.046968 -16.376492
 8.310986 -1.368345 -14.910523
 8.199200 -2.551875 -15.545710
 8.732117  0.293792 -13.049037
 8.896835 -0.920538 -13.612824
 8.303420 -0.143393 -14.138285
 5.520752  0.548429 -18.048239
 6.346734 -1.819943 -18.350376
 5.923071 -0.451421 -18.310627
 7.128383 -0.079045 -16.059074
 4.517636 -12.043880 -17.537333
 4.956547 -8.898330 -19.809345
 5.626983 -10.600084 -17.446337
 6.308002 -3.102035 -18.780474
 9.317415 -3.716351 -13.990376
 8.988393 -5.145319 -14.757840
 8.714311 -3.360100 -14.966058
 7.556219 -2.822812 -16.578840
 6.638749 -6.198388 -18.459057
 7.007999 -5.005727 -17.726215
 7.001683 -7.013666 -17.653826
 4.679265  2.570492  0.800018
 6.612935 -2.265607 -2.666774
 8.480576  3.674194 -4.026033
 6.150765 -0.397882 -0.015788
 7.590055  2.879972 -1.080908
 9.377094 -1.451712 -4.583551
 8.975741  0.483384 -2.779148
 5.029108 -2.914953 -2.664017
 7.324698 -10.279670 -8.897382
 8.801471 -7.561888 -9.863111
 8.088078 -8.828175 -9.397075
 7.636131 -8.798495 -8.213150
 6.893095 -8.778708 -7.201146
 10.036110 -3.682161 -10.981062
 8.995608 -5.308807 -7.751997
 9.748197 -5.617949 -10.659227
 9.391445 -6.499619 -10.319629
 5.864931 -6.048831 -5.618148
 6.946103 -6.913311 -6.563267
 10.058472 -2.327841 -10.360193
 9.156383  0.153338 -12.232782
 5.671560 -3.654544 -3.862913
 9.336913  1.171373 -10.244057
 9.489648 -2.370662 -5.769798
 1.695932 -13.404519 -18.508909
 6.753795 -11.721397 -9.688503
 5.805523 -13.399564 -8.716663
 6.551641 -12.066751 -10.983327
 5.983872 -13.093920 -10.088096
 5.646360 -13.006429 -14.018231
-6.609737 -10.533978 -3.305680
-6.828904 -12.017119 -4.221189
-6.353804 -18.077776 -11.118647
-9.162243 -13.043797 -13.060613
 3.763764 -15.035597 -6.260150
 0.668406 -15.991945 -4.640965
-0.757418 -14.813583 -3.855893
 1.265859 -17.894682 -8.929881
-4.384044 -16.188347 -4.993583
 3.902481 -15.799573 -9.305369
 4.122799 -15.570136 -13.906390
 6.095852 -10.775947 -6.834914
 4.098133 -9.069434 -5.564031
 3.429315 -10.663728 -5.196372
-2.671501 -10.241423 -2.933329
 2.404669 -13.787065 -4.376806
 1.069440 -13.926301 -3.936419
 3.950531 -4.441645 -3.921826
 1.156304 -2.268684 -20.875921
-3.572064 -0.428253 -0.895597
-7.938601 -6.967470 -17.227509
-8.969123  1.439628 -9.702931
 2.287759 -4.339159 -3.350678
-7.780974  1.372079 -13.386107
-5.971542  0.121272 -17.348978
-2.038871 -9.816634 -20.520224
-6.847624 -3.564318 -18.668579
-5.759282 -5.324743 -19.867964
-5.877325 -7.174413 -19.506104
-5.445724 -2.692675 -20.041281
-1.627930 -4.466421 -21.427263
 5.712585  2.953366 -14.631279
 4.861504  2.876433 -15.675394
 3.086039  4.930442 -14.455730
 3.919748  2.023110 -17.753582
 3.274970  3.289734 -16.460320
 1.739674 -1.399541 -0.441257
 3.819316  6.150622 -0.688203
-6.175395  3.790376 -12.176768
-9.343934  0.070224 -11.855780
-8.900958 -0.797457 -13.909303
-9.524454 -2.760808 -14.922425
-10.579269 -9.447788 -6.682311
-7.995437  0.851197 -6.372552
-1.118516 -9.681937 -3.436921
-5.495366 -1.700344 -1.216960
-1.845264 -8.248934 -2.646103
-8.405077 -2.184990 -3.936015
-10.372196 -6.037062 -5.557152
 6.216173 -4.056788 -19.078262
 5.828485 -4.725233 -19.751440
 7.891099 -5.827591 -16.329018
 9.804790 -2.176887 -6.821505
 7.649025 -4.878792 -16.675058
-2.148071  4.363607 -17.134945
-6.045266 -5.262988 -1.045668
 9.449446 -3.699403 -7.105101
 7.292798 -5.941127 -17.265614
 6.044191 -7.046267 -19.433447
 8.888940 -4.400009 -6.667828
 4.671001 -14.325667 -14.646180
 5.339931 -9.456118 -19.084442
 8.424186 -5.825490 -15.584928
-3.122840  4.294064 -16.247372
 0.323045 -9.223579 -4.104253
 5.677676 -3.466379 -19.825600
 0.505287  0.954452 -19.778046
 7.515473 -6.654402 -16.822046
 9.125542 -3.367305 -6.004428
-4.205823  2.225688 -17.715090
-7.489585 -2.827584 -2.218628
 5.334200 -7.695422 -20.099405
 3.820570 -6.773756 -5.079141
-3.555518 -1.447504 -20.728291
 5.309014 -13.911029 -12.787045
-7.536418 -1.629170 -2.941738
 7.995088 -6.872215 -15.993972
 9.029362 -2.508587 -4.989270
 6.608980 -8.260207 -17.832026
 6.704083 -4.011212 -18.179214
 7.984955 -3.737617 -16.087709
 6.904635 -2.936946 -17.676235
 6.397321 -9.471008 -17.205400
 5.080936 -10.485785 -18.436066
 8.901679 -4.258623 -14.886333
 4.827486 -3.408052 -20.636829
 5.084334 -14.467589 -9.609705
 7.622763 -8.234970 -15.889036
 4.762470 -6.936275 -20.697388
-2.401574 -1.444161 -20.975372
 5.207670 -4.348731 -20.418880
 9.850078 -3.535821 -8.471872
 4.556979 -10.101602 -19.289389
 8.686986 -6.474290 -15.073586
 6.406164 -4.368335 -4.829538
 4.322546 -8.202395 -20.511093
 8.306904 -7.462242 -15.286365
 7.258304 -5.056544 -5.740608
-6.519331  1.094567 -4.324666
-0.389183 -1.369639 -20.714188
-1.511569  6.096130 -10.482959
 8.882543 -1.364239 -3.725629
-2.486309  4.898307 -4.116180
-8.118061 -0.544385 -5.171404
 9.252613 -6.065957 -14.149363
 5.126940 -4.998010 -4.782711
-2.447766  5.088749 -15.161256
-9.849277 -4.087090 -14.844757
 9.893180 -0.631096 -6.487464
 5.823030 -2.384936 -19.429770
 1.484233  0.570194 -19.903236
-5.212987  1.438280 -17.150509
 6.148872 -10.453474 -16.598892
 8.711757 -2.109411 -14.598007
 9.189404 -2.268930 -13.742213
 5.425890 -11.742763 -16.453270
 4.113205 -15.342537 -7.825468
-10.982603 -6.665110 -9.898551
-10.710542 -5.748878 -6.711055
 8.156955 -8.331299 -14.906180
 6.730881 -0.802797 -17.238695
 1.425564  2.908791 -18.044708
 2.717060  0.592690 -19.798014
 7.482714 -9.277212 -15.168869
 7.738855 -1.745393 -15.995023
-5.577608  1.876651 -3.990103
 9.499784 -4.761733 -8.377970
 3.533849 -10.954874 -19.261217
 9.631696  0.256643 -4.867237
 9.364073  1.658373 -4.426883
 2.849026  8.244138 -5.205830
 9.346824 -6.740251 -13.599892
-1.027910  5.053882 -3.204068
 5.341364 -1.308802 -19.564547
 0.282421 -3.140626 -21.100910
 3.563300 -2.035663 -20.811172
 1.496191 -16.933949 -6.704454
 6.231839 -10.979135 -15.727227
 5.269966 -13.689633 -7.304664
 8.326022  2.255840 -11.394633
 5.571782  5.420047 -11.343479
 2.859931 -12.308232 -4.675534
 9.658350 -2.445742 -12.618150
 3.537047 -13.472516 -4.903295
 8.675203  3.394006 -5.975309
 4.224216 -12.277835 -5.385496
 5.914688  6.715820 -6.716767
 9.881510 -4.359469 -12.381495
 2.357829 -15.826712 -5.452578
 3.144989 -14.633712 -5.041097
 1.718568 -15.137044 -4.452127
-6.736245 -4.980463 -18.882107
 6.908431  3.514830 -12.220129
 4.365150 -13.693426 -5.743400
 7.341132  5.252932 -4.040764
 9.652118 -5.696671 -13.073869
 2.505682 -11.816249 -19.138300
 1.191496 -16.550663 -5.538479
 8.471657 -8.481594 -14.043303
 7.764816 -0.627476 -15.369986
 2.311691  3.604342 -16.746040
-3.693436  1.389149 -1.867855
 1.799333 -7.025152 -21.263985
-7.592754  2.060097 -6.757834
 2.540450 -8.839097 -4.982078
 9.945240 -4.358775 -10.142232
 2.937626 -4.345397 -21.205696
-6.722949 -7.833333 -18.547810
 1.545375 -12.570756 -4.141557
 8.891495  2.122266 -2.980607
 4.953724  0.002767 -19.125299
-6.753103  0.171551 -16.067553
 1.537373 -15.974841 -4.875520
-6.096786 -3.829430 -19.606075
-10.690894 -4.331098 -7.915373
-7.144563 -0.835750 -16.563274
 8.248616  3.517937 -2.665080
 6.038670 -12.565395 -13.223367
-9.294006 -1.819630 -14.421032
 7.791343  0.449369 -1.210554
 3.852245  0.445330 -19.540657
-6.524541 -6.335562 -19.015764
 5.497055 -13.957995 -8.079665
 9.674729 -5.153810 -9.515058
-0.563516 -4.058106 -21.327747
 1.396310 -11.637294 -19.561125
-4.761321 -4.877969 -20.687721
 9.503636 -6.692290 -12.658398
 8.281657  1.717915 -12.354172
 1.523133 -8.519536 -20.919624
 8.138350 -5.736361 -6.903031
 0.316731 -15.027317 -4.021185
 9.507076 -6.653688 -11.511829
 5.875704  4.559859 -0.452385
-8.542329 -1.149490 -14.908794
 7.263037 -10.577213 -13.400286
 9.196046 -6.084506 -9.050986
-1.466386 -6.033014 -21.374529
 3.145962  4.055993 -15.545575
-0.782847 -15.937600 -4.440794
 5.836492 -1.801192 -1.409625
 6.320261  0.438867 -16.947008
 6.011853 -12.734995 -12.497278
 3.975755  2.728455 -16.697956
 8.255278  1.026979 -13.170727
 5.022049 -10.732323 -5.958599
-4.240363  4.337168 -4.935903
 4.588731  1.173598 -18.286161
 6.785772  1.340875 -0.022262
 1.870660  4.086125  0.344400
 0.653765 -5.367108 -21.344919
 2.073613  5.423437 -14.478285
 0.751932 -10.757062 -20.121037
 5.581829 -8.437377 -6.174510
 5.515442  0.762656  0.651377
 2.888541  1.825059  1.016584
-5.135105  4.182908 -12.654182
 3.072950  5.701808 -13.323078
 9.077971 -7.807071 -12.355769
-3.757304 -15.054015 -4.509192
-3.552917 -6.658545 -20.943920
 4.087495  4.379948 -14.353058
 6.605617 -11.678839 -12.945861
-0.221404 -6.595745 -21.329443
[...]
POINT_DATA  1003
SCALARS atrophy float 1
LOOKUP_TABLE default
  14.74801
  13.23812
 -7.26738
  11.01540
  3.50835
 -1.78802
 -2.59571
  3.63931
  11.21549
  3.31775
  11.98833
  3.99993
  1.48021
 -2.36803
 -5.91483
  12.01476
  0.70050
  6.30769
  15.07158
  9.44281
  3.92079
  2.58239
  4.77406
 -3.20299
 -0.73045
  5.72170
  4.71377
  14.56603
  9.67796
  12.77977
  7.39787
  8.23504
  6.41452
  6.32941
  4.58120
  1.84651
  12.55721
  4.25277
  5.78391
 -1.92698
 -2.50653
 -2.54837
 -2.07937
  2.44097
  11.22201
  12.74463
  14.42979
  3.88961
  3.70573
  2.17704
  6.92155
  1.49675
  10.53331
  0.40781
  1.68781
  14.55826
  0.13992
 -6.86412
  3.45918
  4.03049
  10.23437
  8.87982
  5.34620
  10.74717
  11.13669
  14.98724
  14.80244
  6.59988
  3.33113
  8.66081
  1.48233
  10.91591
  5.76658
  3.37403
 -2.21522
  2.98572
  1.95429
  6.19178
  8.19156
  8.51170
  4.77947
  10.93441
  10.05092
  7.12903
  12.17162
  8.68964
  2.69261
  6.56525
  7.68790
  9.11623
  4.89785
  1.43872
  3.37967
  11.11197
  4.14145
  5.48997
  10.58226
 -1.20653
  5.21659
  1.12674
  6.89082
 -3.62106
  6.04751
  2.79626
 -4.82803
 -1.43141
  6.55752
  0.29684
  2.59312
  2.61761
 -5.46875
  4.11036
 -7.21154
 -2.05253
  2.75982
  1.85187
  2.32027
  3.47935
 -0.34455
 -3.23057
 -1.69536
  2.35038
 -3.75524
  4.74301
 -1.44081
  3.19586
 -4.09513
  2.10039
  7.37454
  5.84702
  2.21390
  4.50432
  5.80879
 -3.89892
  6.11418
  7.16263
  6.42681
 -4.61493
 -1.94263
  2.32083
  5.62240
  0.51276
 -5.87044
 -5.09214
  2.94995
 -3.82053
  6.21600
  6.28565
  4.19166
  0.57530
  8.86026
 -4.32942
 -5.20901
  6.10813
  10.36270
  0.12509
  9.27849
  4.22716
 -5.93742
  7.72496
  2.77101
  6.02067
  9.60509
 -4.32850
  4.99589
  5.58197
  1.27788
 -1.76509
 -5.42997
  0.16132
  5.22845
  1.83353
  3.11719
  14.10357
  10.40743
  15.30487
  6.37897
  6.34520
  6.59187
  12.14196
  4.78264
  4.58064
 -5.99976
 -0.04828
  2.66178
  3.19581
  4.95936
 -3.11942
  8.56042
 -0.61195
  1.94393
  10.96655
  5.44592
  15.04538
  1.85149
  0.98421
 -0.32305
 -3.82280
  2.50819
 -0.37373
 -3.31838
  1.20615
  1.55384
  4.94234
  1.55078
  13.05100
  5.34624
 -7.43796
  1.56093
  6.65083
  10.72827
  7.84191
  6.07756
  1.33076
 -2.19963
 -6.58364
  11.98227
  6.34943
  3.67479
  4.27284
  3.84221
  5.44268
  6.87993
  2.94429
  3.00874
  1.37563
  14.49061
 -7.26530
  14.71431
 -1.04429
 -5.49869
  0.03211
 -5.12644
  1.26780
  2.53474
 -2.83476
  9.96688
  9.88116
  7.28992
  14.89557
  2.69622
  7.62245
  4.85423
  5.01460
  0.86459
 -6.59795
  6.75888
  2.92535
  4.84979
  1.18964
 -0.63393
  1.59202
  7.32411
  4.33004
  0.85424
  2.71787
  3.17069
  2.02981
 -1.43416
  4.26492
 -2.43546
 -4.09571
  14.74173
  4.78174
  7.14435
 -6.17219
  9.16627
 -3.17630
  2.74704
 -1.59675
  5.23379
 -0.24782
 -1.85436
  7.50992
  0.99349
  3.00600
  5.54638
 -5.72862
 -6.07216
 -1.48737
  9.92462
 -5.82827
 -3.03577
 -7.28340
  10.65995
  8.40499
 -3.85924
  9.46771
 -0.62049
  14.16369
  13.74679
 -6.67042
  14.23088
  9.92794
 -6.19786
 -0.99891
 -6.65726
  1.63345
  1.25809
  5.26055
  7.07731
  5.09315
 -3.69733
 -7.18217
 -3.62337
  11.10862
 -6.16917
  6.39199
 -2.31968
 -6.57679
  6.64958
  4.78521
  0.75830
 -0.35983
  3.44267
  2.30452
  4.14737
  0.60945
  5.16547
  14.51563
 -3.32001
  10.18363
  1.07837
 -5.60460
 -7.09819
 -4.43897
  9.87699
  7.19138
  2.67083
  3.81007
  8.76211
  11.45386
  0.94919
  3.08056
 -6.18617
  6.13449
  4.70544
  5.20591
  13.28930
 -7.20935
  10.48809
  4.38291
  5.24161
  0.86464
  8.52669
  0.70481
  13.18664
  10.44202
  14.59749
  10.15659
 -3.68818
  3.73014
 -6.31866
  7.06147
  6.19579
 -4.74592
  1.98877
  9.25139
  7.01658
  3.02443
  4.17764
  12.66089
 -0.91199
  6.45303
  9.83062
  5.62121
  11.81115
  6.72382
  7.56883
 -0.77262
  9.04492
  6.17095
  5.11185
  4.45662
  3.30868
  2.22793
  12.01435
  6.30612
  1.65909
  4.63051
  2.77908
  4.37605
  5.30185
  12.33532
  1.35324
  0.70806
  14.41439
  13.02500
  2.78382
  2.65949
  11.27850
 -0.42025
 -2.65923
  7.12456
 -4.10483
  10.50412
 -5.56080
 -0.55738
  11.75796
  7.27870
  1.78945
 -2.22116
  3.08628
  8.15873
  0.90365
  1.22478
 -1.11287
  14.53984
 -0.28220
  13.01029
  4.55477
 -4.96846
  15.10175
  3.49710
  8.63470
 -7.02255
  7.73604
 -2.22812
  1.35255
  13.28493
  8.98577
  9.07819
  1.87654
 -2.33218
  11.75917
  5.49821
  9.36933
  3.02645
  11.20964
  2.22430
  14.16940
 -5.16871
 -4.53550
  12.70572
  13.82774
  10.37573
 -2.79307
 -2.80404
  1.98628
  14.30636
  7.51145
 -5.01297
 -1.31620
  9.05376
  4.56558
  12.28236
  7.14026
 -0.32724
  5.49297
  5.72289
  13.59179
  6.06011
  13.46605
  2.39760
  14.68355
  1.86834
  1.89764
  15.36765
  9.84139
  12.18405
  4.85780
  6.08411
 -5.78433
  13.22863
  2.51619
  7.64156
  12.34041
  9.01131
  5.09645
  4.98078
  2.93601
  3.43781
 -7.41159
  4.41593
  6.50123
  2.64174
  5.37443
  4.18187
 -6.31574
 -6.33101
  4.78952
 -4.24603
  0.43606
 -1.31558
 -1.18357
  6.15120
  6.01329
  5.01134
  2.17776
  0.40738
 -0.54172
 -3.24818
 -2.19578
  3.59975
 -6.77629
 -1.31384
  1.07145
 -3.04072
 -3.17472
 -6.96429
  13.59043
 -0.37316
 -7.15126
  2.78771
  5.96079
 -2.20045
  5.47101
 -0.25369
  1.99635
  4.83092
  6.70429
  1.22233
  6.77155
  2.68257
 -2.32859
  0.91347
 -0.00569
  4.69900
 -4.14097
  5.10630
 -7.02309
 -6.14419
  1.65037
 -5.30509
  5.67270
 -3.37338
 -1.08690
 -4.63553
 -4.12212
  6.24124
 -4.05317
  5.39015
 -2.79154
  4.99213
  7.09485
 -0.24029
  0.24559
 -4.31692
 -5.86931
  6.53603
  0.81368
  3.02253
  7.23186
  0.31458
 -2.97742
 -6.59131
 -7.31395
 -4.90149
  1.53953
 -3.74548
 -4.61170
  6.40930
  1.39623
  1.25983
  1.31694
  2.40909
 -6.30149
  6.16153
 -5.53628
 -6.98771
 -0.24771
 -5.85947
  4.73851
  5.37916
  6.47560
  6.86704
  7.10485
  3.76458
  1.36309
  0.17842
 -3.81693
  7.29776
  2.58224
 -3.10961
  2.13785
 -1.61219
 -5.57268
  10.86337
 -0.03871
  5.69935
 -4.79715
  4.22366
  2.10103
  5.71384
 -4.16201
  5.15631
 -3.84498
  4.15219
  4.84812
  2.48220
 -4.45794
 -1.67993
 -6.42713
 -5.61024
  5.70139
  0.29190
 -4.65478
  0.49965
  7.38595
  1.46311
 -0.76334
  4.09804
  3.12971
  6.88024
 -2.84263
  5.44882
 -3.70264
  1.33564
 -3.26165
  4.29184
 -3.02994
 -1.29107
 -2.01049
  3.96869
  5.51430
  1.38100
 -7.42262
  4.56553
  4.23964
 -2.54333
  1.22176
 -4.47898
 -2.75450
 -0.53164
 -5.51073
 -3.35566
  6.36124
  5.96293
  0.45505
  2.13154
  1.56757
  3.34220
  7.32704
  2.83808
  6.86223
 -6.84928
  3.94587
 -2.82331
 -1.58117
 -4.79453
  4.23160
 -7.05803
  4.72575
 -2.93770
  1.79419
 -6.26324
  3.69205
  5.92183
 -4.59516
 -5.96995
 -3.32143
 -3.74358
 -6.77742
 -6.65059
 -3.31256
  3.80901
 -2.74571
  3.31689
 -4.66619
 -3.13235
  4.23293
  0.16600
 -5.51402
 -1.12702
 -1.14280
 -0.08115
  6.79002
 -1.84452
  1.96761
 -4.74221
 -5.96433
  1.75371
  4.02291
  5.11435
  6.42799
  5.84268
  0.76040
  2.77406
 -7.01878
 -6.39296
  6.45906
  4.08607
 -6.79674
  1.13668
  1.59134
 -0.99445
  6.54318
  4.22515
 -2.72972
 -5.00530
 -6.02480
 -2.64751
 -0.35104
  2.77337
  2.49929
  5.76243
 -7.00756
  4.43364
  1.97780
 -1.79752
  4.52339
 -5.58711
  0.36312
 -5.33542
 -6.16745
 -2.50288
  5.92615
  5.12459
 -0.91675
  2.42431
  1.14191
 -0.21534
 -5.09921
  5.13751
  7.33940
 -3.77849
  1.27512
 -3.41305
 -5.55392
  0.21583
 -6.00680
 -0.57856
 -5.59619
  4.65100
 -4.96106
  1.57218
 -6.03451
  6.25298
  5.85282
 -4.23564
 -6.97617
  6.02393
 -5.44040
 -6.90622
 -4.02890
  6.48671
 -3.23997
  3.06415
  2.85660
  3.49952
 -1.60577
 -4.50885
  0.79089
  1.53009
 -7.43587
  3.85338
 -5.31663
  5.17431
  5.99361
 -1.92640
  3.67829
  3.89444
  2.00105
  2.00092
  2.87413
  0.97283
 -5.56028
 -5.96878
 -7.07548
 -2.62181
  4.80936
  6.92430
  4.50181
 -3.59139
  2.17896
  3.80358
  3.57711
 -7.19262
  2.54370
 -6.37629
 -0.83285
 -6.04673
 -2.15956
  5.46602
  6.38817
  5.54718
  4.35676
  3.43991
  0.94631
  1.61726
 -4.63630
 -7.45989
 -2.78428
 -0.29947
  0.82298
 -5.36569
 -0.75616
  0.96868
  1.28236
  1.89546
 -5.87840
 -5.66421
  1.91812
  2.25106
  5.02068
  1.12600
 -0.75378
  4.35306
  6.09667
  1.92641
 -0.58506
  1.70856
 -1.05127
 -5.36784
 -6.61438
  6.36309
  1.94412
 -3.42028
 -3.70521
  7.43396
  1.92649
  3.96569
 -7.31051
 -3.35027
 -1.07621
  2.01937
  5.69946
 -1.43257
  5.16395
 -1.28462
 -3.94018
 -0.88608
 -3.95813
  4.95508
  3.03125
 -2.80853
 -2.62755
 -0.89302
 -2.94627
  6.51335
  6.37978
 -0.07960
 -2.97778
 -3.22814
  5.88188
 -3.31036
  2.62918
  6.62228
  0.63176
  3.19000
 -1.24282
  6.79181
 -2.17474
 -1.39301
 -2.03769
  2.25987
  0.57167
  1.65155
 -2.57928
  3.63259
  5.26301
  0.89527
 -0.43725
  6.92393
 -5.28985
 -0.77391
  2.83254
 -3.70946
 -5.06362
  1.72450
  1.04701
 -5.62680
  4.68929
 -1.07311
  5.19490
  7.22363
  1.57331
 -6.16853
 -4.76391
  7.18821
 -3.20517
  3.33785
 -4.92836
 -3.94194
 -0.96194
  1.70343
  6.91155
  0.66957
  6.36527
 -5.18491
 -2.54758
  3.13863
 -4.18297
 -0.37562
 -5.16979
 -3.52826
 -5.53942
  0.08500
 -1.33875
  6.78033
 -3.31140
 -3.72633
 -4.87698
 -5.45790
 -5.00346
 -7.40401
 -0.70361
 -5.13440
  3.97284
  7.09926
  5.44583
  0.63361
 -4.45053
  3.94956
 -1.00254
  1.31416
 -2.91070
 -4.85547
 -3.04338
 -4.45353
  6.54794
  2.64053
  6.28811
  4.58586
  0.08366
  3.16046
 -1.11273
  2.91840
 -2.30615
  1.05466
  4.44634
  4.19870
 -4.69562
 -7.21751
 -4.43946
 -5.77298
  7.35440
  7.40583
  6.27955
  2.72414
 -7.30454
 -3.62509
  4.34139
  4.79800
  2.75811
 -6.88443
  0.17143
  2.01371
  7.27056
 -4.54091
  1.75109
 -2.92370
 -3.74098
 -5.20431
  5.46600
  5.00011
 -3.10960
  0.41366
  5.73188
  4.69070
 -1.41590
 -4.26813
 -6.36634
  2.93200
  1.39823
  6.87118
  3.16363
 -0.01737
  0.16257
 -5.93435
 -2.77115
 -5.07926
  7.17817
 -4.34280
  4.05897
  5.91644
  0.19189
 -4.04750
 -5.78356
 -0.61632
  0.83952
  2.28871
 -5.52426
  5.22092
  2.07385
 -3.80175
  12.03827
  7.03856
  11.58043
  6.81040
  1.29669
  6.62638
  7.66050
  1.72426
  7.44502
  5.76926
  15.00653
  13.09919
  15.19858
  2.25897
  14.72722
  12.25692
  0.22159
  10.37800
  5.67067
  2.95538
 -6.06388
  3.75171
 -5.00290
  0.26447
  1.56138
 -1.07038
  3.64893
