# vtk DataFile Version 3.0
Surface Data
ASCII
DATASET POLYDATA

POINTS  1003 float
 9.166329 -2.972139 -11.539645
 8.211884 -7.482173 -11.225288
 3.451675 -7.356612 -20.592672
 6.710413 -2.174690 -16.625502
 4.392114 -0.035499  0.508593
 0.376154 -18.728821 -11.581331
 2.313133 -5.437832 -4.216233
 7.329284 -9.583379 -12.774650
 7.302093 -9.935695 -10.248282
 6.885633 -10.205252 -14.284842
 9.007188 -5.205424 -11.579723
 8.325450 -7.400189 -13.222576
 8.811808 -4.772268 -13.408424
 1.711619 -10.121430 -20.339828
 3.994791 -11.004213 -18.275875
 5.479653 -9.208643 -17.642166
 6.585652  4.429101 -2.683399
 7.247643 -0.925565 -2.801156
 8.772746  1.394235 -6.391880
 6.439256 -2.783978 -4.451203
 9.264993 -1.259531 -8.852659
-2.873638 -11.014479 -19.356659
 6.732564 -11.822621 -7.877898
 2.835254 -16.598627 -6.812595
-1.529792 -11.314303 -3.769279
 6.970359 -10.844298 -10.846658
 6.817217 -10.731762 -12.521650
 6.350909 -11.968738 -12.077848
 7.715675 -8.749506 -11.968113
 5.274509 -12.575147 -15.320983
 7.450064 -8.998194 -14.290024
 6.584966 -10.303467 -15.131769
 6.530983 -9.543151 -15.881658
 6.134215 -11.514138 -14.748612
 6.293473 -11.647170 -13.816174
 8.989152 -3.693204 -12.728323
 8.196327 -7.136374 -14.168348
 7.426081 -9.310035 -13.596259
 7.873997 -8.451996 -12.971341
 1.453256 -4.081468 -21.412209
 3.654262 -9.477120 -19.490406
 2.624443 -10.429830 -19.712542
 2.811442 -8.876159 -20.360003
 0.835475 -9.999263 -20.647673
 6.394010  2.724547 -13.719771
 8.810243 -1.169761 -12.171817
 6.867554 -1.387998 -15.891112
 7.829956 -1.540690 -14.627020
 7.755766 -2.667057 -15.341794
 8.236526  0.091482 -12.807464
 8.350965 -1.068932 -13.382258
 7.827868 -0.369549 -13.832516
 5.138658  0.189747 -17.713406
 5.935078 -2.199353 -17.819279
 5.473523 -0.930889 -17.769882
 6.669027 -0.471824 -15.557556
 4.290666 -11.787507 -17.347021
 4.588609 -8.684350 -19.024656
 5.304098 -10.462885 -17.110340
 5.985015 -3.293671 -18.346163
 8.654741 -3.760882 -13.811302
 8.380042 -5.115221 -14.581961
 8.190752 -3.422574 -14.818049
 7.189892 -2.967533 -16.336845
 6.318173 -5.957014 -17.964684
 6.740034 -4.909131 -17.483496
 6.634203 -6.770007 -17.195900
 4.723359  2.642930  0.761279
 6.206608 -1.906816 -3.166628
 7.735879  3.187448 -4.229264
 5.955934 -0.158864 -0.484546
 7.025152  2.637771 -1.587879
 8.686197 -1.252098 -4.906562
 8.157045  0.624982 -3.142197
 4.712844 -2.618801 -3.096131
 7.227968 -10.120507 -8.948417
 8.097287 -7.273676 -10.068885
 7.625689 -8.563094 -9.578415
 7.371776 -8.562106 -8.376890
 6.812044 -8.582516 -7.247353
 9.218632 -3.672725 -10.884374
 8.323434 -5.036766 -8.121186
 8.909951 -5.458271 -10.701185
 8.577515 -6.262450 -10.454515
 5.635627 -5.745305 -5.839028
 6.684196 -6.619493 -6.807111
 9.272989 -2.370682 -10.261349
 8.604229 -0.020896 -12.029877
 5.316668 -3.286255 -4.299858
 8.768479  0.972868 -10.095862
 8.797652 -2.176624 -6.085691
 1.743382 -12.881877 -18.479916
 6.843189 -11.660205 -9.688377
 6.330100 -13.499722 -8.625548
 6.516595 -12.028214 -11.020541
 6.268112 -13.145681 -10.105752
 5.460410 -13.108663 -14.129731
-6.510809 -10.024825 -3.296766
-7.071713 -11.911340 -3.716261
-6.206668 -18.129883 -11.699829
-9.366337 -13.125976 -12.775786
 4.014757 -15.282087 -6.145927
 0.415720 -16.030190 -5.069469
-0.946304 -14.603934 -4.611047
 1.138180 -18.176807 -8.774832
-4.192199 -16.558643 -4.643331
 4.277247 -16.048653 -9.312235
 3.913151 -15.411098 -13.990237
 6.377995 -10.753449 -6.555406
 4.199322 -9.048917 -5.172139
 3.552696 -10.745269 -4.718378
-2.453597 -10.082829 -3.230937
 2.256500 -13.853546 -4.373233
 0.776285 -13.884220 -4.265886
 3.703213 -4.185764 -4.159507
 1.274877 -2.236944 -21.084843
-3.713920 -0.806378 -0.532619
-8.168706 -6.756723 -17.396671
-9.140276  1.499021 -9.531482
 2.144970 -4.211656 -3.555863
-7.955989  1.487736 -13.517624
-6.091506  0.331496 -17.555334
-2.108537 -9.728997 -20.277237
-6.737315 -3.606227 -18.713354
-5.644884 -5.379281 -19.701895
-5.685323 -7.026143 -19.205662
-5.456738 -2.810380 -19.921129
-1.768438 -4.318632 -21.631077
 5.670416  3.183895 -14.814127
 4.936332  3.393058 -16.088232
 3.335446  5.246537 -14.794358
 3.972618  2.483039 -18.290327
 3.581732  4.126191 -17.180410
 1.756959 -1.665802 -0.536463
 4.102925  5.835281 -0.720840
-6.136437  3.934178 -12.227388
-9.624384  0.029723 -11.894761
-8.874623 -0.867202 -14.009962
-9.198852 -2.948742 -14.909483
-10.070817 -9.018740 -6.952983
-8.739532  0.896231 -5.984800
-1.015736 -9.686990 -3.490763
-5.470641 -2.010039 -1.216118
-1.548231 -8.193159 -2.848241
-8.508476 -2.659676 -4.172362
-9.104073 -6.303990 -6.351167
 5.946000 -4.078784 -18.681433
 5.545459 -4.655531 -19.256712
 7.500967 -5.730252 -16.160368
 9.049671 -2.066985 -7.010356
 7.323249 -4.834029 -16.543444
-2.325320  3.664457 -16.890984
-5.467504 -4.987140 -1.472290
 8.739417 -3.492355 -7.422695
 6.970060 -5.780478 -16.998320
 5.665118 -6.737755 -18.664206
 8.267099 -4.106077 -7.105691
 4.467556 -14.218959 -14.728615
 4.938565 -9.209366 -18.342936
 7.931386 -5.750839 -15.419930
-3.378661  3.847321 -16.121593
 0.353803 -9.303409 -3.868336
 5.358627 -3.624311 -19.315603
 0.685137  1.175145 -20.364275
 7.137959 -6.478178 -16.535728
 8.490185 -3.101691 -6.422021
-4.451940  2.058374 -17.678778
-7.330436 -3.067087 -2.499588
 4.949339 -7.438242 -19.256212
 3.733979 -6.617247 -4.991663
-3.711236 -1.508068 -20.494356
 5.218250 -14.014274 -12.939529
-7.813709 -2.042243 -3.076545
 7.548285 -6.727297 -15.759226
 8.414184 -2.240061 -5.409317
 6.204307 -8.018150 -17.257313
 6.441737 -4.037587 -17.892645
 7.601147 -3.786846 -15.960841
 6.575031 -3.119566 -17.343134
 6.033553 -9.340423 -16.804001
 4.745616 -10.271920 -17.934816
 8.331808 -4.287651 -14.742702
 4.530293 -3.610693 -20.138599
 5.555606 -14.622133 -9.624658
 7.208429 -8.091610 -15.624598
 4.447901 -6.789988 -20.018156
-2.510355 -1.412178 -20.796442
 4.921275 -4.377758 -19.916761
 9.066329 -3.429405 -8.613683
 4.252308 -9.909260 -18.706619
 8.115496 -6.344055 -14.857722
 6.046188 -3.983158 -5.283829
 4.032736 -8.101073 -19.850056
 7.794160 -7.286109 -15.043465
 6.860955 -4.691772 -6.186957
-7.354375  0.845703 -4.086846
-0.265622 -1.195842 -20.896206
-1.761474  6.513872 -10.554047
 8.246119 -1.102471 -4.123599
-2.296896  4.334122 -4.385478
-8.952045 -0.792196 -4.964345
 8.555654 -5.944992 -13.927216
 4.856479 -4.674177 -5.051822
-2.710195  4.658149 -15.054049
-9.655536 -4.199063 -14.835230
 9.100147 -0.605780 -6.597074
 5.439858 -2.731224 -18.863764
 1.643803  0.764422 -20.549000
-5.424843  1.551971 -17.317177
 5.853917 -10.423716 -16.395058
 8.187651 -2.217289 -14.396093
 8.576425 -2.361005 -13.554783
 5.183350 -11.673704 -16.358864
 4.582753 -15.621708 -7.734051
-10.393348 -6.310404 -9.965922
-9.560031 -6.015961 -7.400184
 7.662837 -8.143385 -14.677758
 6.268283 -1.230868 -16.683092
 1.683264  3.294895 -18.662958
 2.745729  0.652424 -20.301067
 7.108075 -9.198152 -14.994301
 7.304869 -1.965589 -15.649426
-6.203424  1.537691 -3.799698
 8.738194 -4.562850 -8.643568
 3.390888 -10.783735 -18.965494
 8.789082  0.292388 -5.067374
 8.474782  1.554595 -4.634418
 2.527305  8.179557 -5.210264
 8.599639 -6.535440 -13.382096
-1.168015  4.963004 -3.183182
 4.935440 -1.779235 -19.013645
 0.353924 -2.997391 -21.351717
 3.377674 -2.353974 -20.547215
 1.438004 -17.314890 -6.673627
 5.984132 -11.034611 -15.668074
 5.805555 -13.848178 -7.089747
 7.928366  1.996701 -11.236283
 5.491637  5.405900 -11.456997
 2.863150 -12.407171 -4.363111
 8.945421 -2.525037 -12.435624
 3.604021 -13.594270 -4.654207
 8.022580  3.030659 -5.998859
 4.448773 -12.390181 -4.950271
 5.595648  6.474374 -6.697399
 9.074487 -4.342784 -12.207565
 2.276263 -16.078901 -5.545887
 3.150355 -14.787723 -4.991236
 1.469008 -15.197199 -4.741146
-6.624779 -5.011102 -18.860415
 6.718328  3.412549 -12.215458
 4.649343 -13.850608 -5.456711
 6.904209  4.525412 -4.196875
 8.861743 -5.581293 -12.879025
 2.504994 -11.594773 -19.065529
 1.022361 -16.794296 -5.716106
 7.883012 -8.230165 -13.840542
 7.303380 -0.910563 -14.964705
 2.631798  4.203560 -17.367846
-4.277493  1.129039 -1.304483
 1.693987 -7.154808 -21.380610
-7.776785  1.958261 -6.569422
 2.579428 -8.873011 -4.570230
 9.121594 -4.275927 -10.162498
 2.816928 -4.408716 -21.128330
-6.622705 -7.589822 -18.343685
 1.361305 -12.615525 -4.096294
 7.984688  1.980579 -3.334317
 4.600934 -0.386396 -18.819893
-6.842877  0.456320 -16.360287
 1.291655 -16.132318 -5.160812
-6.008048 -3.941861 -19.528000
-9.987966 -4.709032 -8.328228
-7.116869 -0.619127 -16.792730
 7.491929  3.040295 -3.048537
 5.865427 -12.702403 -13.317269
-9.063329 -1.986502 -14.456479
 7.237442  0.657750 -1.678270
 3.691010  0.289446 -19.669800
-6.382791 -6.266805 -18.883638
 6.178323 -14.115927 -7.931437
 8.863706 -4.988135 -9.669010
-0.596769 -3.862348 -21.642019
 1.500473 -11.541733 -19.591822
-4.758841 -4.971653 -20.515068
 8.699265 -6.471429 -12.510105
 7.882098  1.466196 -12.153666
 1.477820 -8.728482 -20.972145
 7.636184 -5.411442 -7.319305
 0.026294 -14.916779 -4.610072
 8.675559 -6.423581 -11.496236
 5.850900  4.066815 -0.793637
-8.396862 -1.147798 -15.016293
 6.872095 -10.516290 -13.340137
 8.446925 -5.835470 -9.317899
-1.685371 -5.905171 -21.594603
 3.467328  4.734025 -16.117517
-0.896079 -15.828889 -5.014115
 5.531620 -1.510666 -1.896697
 5.892489  0.033322 -16.488062
 5.902209 -12.839890 -12.585387
 4.148269  3.440471 -17.331020
 7.826363  0.778654 -12.916759
 5.290663 -10.767633 -5.513568
-3.843136  3.593075 -5.269927
 4.404341  1.156270 -18.392843
 6.492791  1.448294 -0.496132
 1.762077  4.729286  1.219582
 0.572100 -5.293540 -21.684607
 2.247239  5.332919 -14.634153
 0.878437 -10.891345 -20.209978
 5.600210 -8.294353 -6.047787
 5.459697  0.900739  0.316705
 2.847614  2.017657  1.508280
-5.233356  4.509779 -12.730655
 3.194786  5.693934 -13.487477
 8.300640 -7.507075 -12.271149
-3.513343 -15.277568 -4.440042
-3.654369 -6.554752 -20.781097
 4.316867  4.928692 -14.794219
 6.355578 -11.729920 -12.966454
-0.393770 -6.557864 -21.636663
[...]
POINT_DATA  1003
SCALARS atrophy float 1
LOOKUP_TABLE default
  15.39006
  11.09999
  5.86300
  11.06712
  0.53963
  1.34732
  4.93991
  15.15655
  17.39850
  17.76626
  22.03277
  9.51584
  19.16840
  6.76275
 -5.63518
  13.82973
  21.81522
  18.75950
  20.71903
  22.45370
  8.88123
  2.25811
  12.48241
 -1.73888
  4.89377
  13.29047
  20.87658
  20.57041
  12.70620
  13.86658
  13.50392
  10.52577
  15.23105
  19.38340
  18.20944
  11.29314
  18.69204
  10.43777
  21.95623
 -1.40129
 -0.64925
  0.47300
 -2.31191
  6.65127
  19.27672
  19.65449
  23.28602
  9.01557
  12.01441
  15.98242
  19.78280
  16.39612
  14.53661
  22.37585
  13.82053
  14.37101
  1.95087
  7.70856
  7.26003
  17.82530
  11.70937
  14.21234
  12.90105
  9.11751
  22.37999
  14.83846
  14.88303
 -1.76902
  11.60485
  22.68288
  16.41269
  20.87800
  21.02581
  21.01632
  3.01498
  13.81489
  8.79189
  21.84651
  12.46917
  11.43685
  18.59173
  12.43498
  18.86159
  12.94797
  12.71783
  14.48902
  23.36026
  8.57068
  16.40040
  19.01128
  22.25583
 -1.61666
  15.11781
  17.34048
  13.14913
  17.74164
  10.09586
  3.80678
 -4.82089
 -2.43028
  3.77437
 -5.76670
  6.81940
 -3.95867
 -7.31560
 -0.73046
  3.57942
  5.95187
  17.18597
 -2.14885
  6.85372
  1.50708
 -6.01884
  5.20291
 -4.96042
 -4.24057
  5.72169
 -5.14178
 -1.56529
  1.97811
 -4.40875
 -4.01758
 -0.01631
 -4.62353
 -4.93839
 -3.57335
 -1.80167
 -7.29521
  9.29149
  4.28482
  4.02687
  2.42114
 -6.59190
 -5.19592
  4.48689
  7.15574
  6.05669
 -3.51337
 -4.75716
 -1.67858
  2.62684
  1.57687
  4.37220
  1.46886
 -2.23446
  5.51745
  14.26321
  10.13271
  11.80882
  10.64653
  9.55039
  2.98281
  1.44772
  22.59288
  9.76357
  7.29156
  13.51809
 -5.51413
  7.83115
  10.69008
  0.48460
 -4.13010
  11.63667
  3.35804
  18.28057
  9.51669
 -6.74839
  7.13687
 -1.10497
 -2.01537
  1.14276
  3.71047
  4.22292
  18.57354
  18.20945
  18.71534
  12.36873
  17.66486
  19.19516
  14.91030
 -1.83732
  10.08631
 -3.71181
  6.20345
  18.91453
  6.29029
  1.88531
 -3.64961
  20.33472
 -0.44350
  16.86102
  19.64240
  3.46240
  23.44159
  20.87220
 -4.97668
 -1.64964
  0.75468
  21.24320
  2.59194
 -7.02881
  19.91494
  17.73200
  7.45218
  3.51702
  12.96588
  20.09732
 -6.50075
 -3.94563
  22.36894
  10.98998
  20.40554
  7.22191
 -1.93112
  4.11229
  0.08917
  11.15028
  19.44631
  2.80946
 -1.66805
  20.28358
  21.40403
 -4.78387
  17.16914
 -5.79015
  15.64284
  12.71564
 -5.01610
  15.89148
 -3.51575
  4.28339
  2.22717
 -4.59477
 -2.15199
  13.21282
 -5.02188
  20.59177
  21.17952
  3.12188
  19.06521
  1.80310
  20.59722
 -6.81963
  9.57400
  14.41537
 -3.54656
  2.65171
  5.63896
 -4.48439
  14.85717
 -1.40273
  16.65778
  19.18023
 -2.15413
 -1.25482
  8.64255
  22.33646
  4.03667
 -5.65117
 -2.19770
 -1.35610
 -1.41233
  13.07358
 -1.39231
 -2.28922
  2.77657
  23.32112
  5.41082
  6.62724
  2.46353
  7.13209
 -1.13535
 -1.60488
  8.57152
  10.50228
 -6.53948
  14.53627
  5.87707
  6.03284
  2.62246
  11.49389
 -0.65421
 -3.03703
 -0.87215
  22.48202
  13.61414
 -4.32058
  13.70327
  6.38667
  21.10895
  14.51044
 -4.15932
  10.74909
  18.11589
  7.12937
  0.48300
 -0.74097
  16.61390
  17.66303
  22.58242
 -2.82491
  16.73412
 -5.34226
  0.88579
  8.64062
  23.35847
 -5.46777
 -2.53088
  5.76469
  6.86517
  9.33146
  7.22306
  3.17202
 -2.87621
 -3.25399
  16.51868
  1.01136
  0.94813
  6.12339
  8.80666
 -1.99235
  18.38520
 -3.66361
  3.46264
  6.73412
 -1.61924
  12.58824
 -1.94412
 -5.45568
 -2.97562
  8.54601
  21.13301
  2.40954
  4.85737
  0.36339
  10.00052
 -0.10507
  17.97657
  13.15639
 -4.25810
  16.48124
 -0.25847
 -1.06705
  2.69391
  7.95490
  1.41405
  19.75042
  20.17445
  9.69692
  20.22315
  2.49918
  22.78046
  3.48990
  2.98901
 -3.28952
  3.10967
  21.06799
  8.58676
  9.23702
  3.69137
  22.22577
  10.38870
 -2.49860
  21.94882
  18.39823
 -5.95511
  11.85616
  21.53749
  14.75683
 -5.08565
  9.82211
  9.16295
  13.47116
  8.56493
  0.88777
  0.26424
  12.24143
 -5.22300
  1.30111
  20.59941
  12.64673
  21.96852
 -2.46825
  9.70716
  13.46961
  12.37896
  8.80410
  16.22113
  9.97357
 -1.88987
  14.69933
 -2.38554
  2.35392
  13.13127
  3.79384
  14.38262
 -5.18196
  2.44172
  20.36456
  12.49830
  10.00079
  6.85311
  14.26983
  19.69111
  10.13525
 -0.24134
 -0.13956
  13.12922
 -1.99148
  13.22676
  5.91577
  3.21473
  9.02738
  12.14434
  16.50186
 -7.27975
 -1.76489
 -5.03458
 -4.62953
  13.68575
  21.20863
  11.69045
  17.08222
 -3.43077
  13.84119
  8.20679
  9.36888
  14.28839
  19.28981
 -2.37525
  12.20862
  5.34394
  3.61341
  10.21869
  13.84700
  17.51846
  3.30602
 -1.09484
  8.47801
  11.47036
  15.32883
 -0.73495
 -0.57395
  13.52583
  19.82802
  10.90721
  20.18821
 -7.32402
  22.00783
  5.80991
  16.29396
  0.13302
  9.18179
 -5.20945
  19.08616
 -5.54869
  19.47621
  16.81700
  12.25307
  21.52780
 -5.21747
  17.00564
  4.24278
  21.73214
 -4.66485
  11.63153
  19.92391
  19.75921
 -0.14799
  3.91853
  1.74713
 -2.78781
 -2.15385
 -3.06846
 -1.97619
  4.08817
  2.25645
 -4.82647
  5.77859
 -6.02879
 -6.13641
  2.01400
 -1.08181
  3.53832
 -2.54891
  1.13600
  4.52229
  6.42725
 -0.41387
  3.63396
 -3.33795
  3.12941
  5.52799
  3.64559
 -6.34137
 -3.11524
 -3.46451
  4.73618
  3.43997
 -2.37563
  16.23999
  1.57067
 -2.11182
  0.78153
  15.74658
  1.35488
 -5.24460
  0.24257
  0.95713
 -6.26101
  18.43187
 -2.01431
  5.75814
  1.31239
 -0.16281
 -1.51828
  0.00350
  3.79229
 -6.86239
  6.36536
  1.59063
 -4.51106
 -4.04274
  7.24692
  4.42331
  4.68238
  3.86933
 -7.11177
  6.98684
  1.60547
 -6.16416
 -4.10723
 -2.18649
 -2.72993
 -2.34860
 -5.42194
  6.24110
  1.29612
  7.00105
 -3.12001
 -7.42199
  5.45613
 -3.50719
  2.16239
  5.21235
 -1.48661
 -2.84313
 -2.01288
  6.93462
  1.04347
 -0.18220
  1.69107
  5.98740
 -0.71844
 -7.09469
  5.17156
 -0.67198
  5.73025
 -3.58351
  4.01395
 -5.11251
 -6.68414
  2.38335
 -0.12226
 -6.37006
 -0.81882
 -4.69746
  1.93316
 -3.72558
 -5.43207
  6.04536
  6.73859
 -6.99135
  0.43367
 -4.79132
 -1.60723
  2.07375
  9.06307
  0.77644
  1.89293
 -0.15531
  3.92407
 -7.37102
  2.11830
 -2.38953
 -5.01911
  2.68231
  1.93944
 -7.38263
  3.39429
  5.68114
 -3.09503
  5.32390
 -3.69353
 -7.33328
 -5.37890
 -0.33512
 -2.91316
 -1.72486
  7.24415
 -3.15271
 -7.21281
 -4.43963
  3.08396
  6.54002
  6.13511
  1.00885
 -6.83051
  7.03101
 -4.14689
  5.06961
  2.99857
 -3.25775
 -1.38516
 -2.27460
  1.29493
 -1.11900
  5.25211
 -0.51393
  1.38315
 -1.57449
  1.60400
  1.22059
 -6.10194
  6.89110
 -0.92630
 -5.97380
 -6.73980
 -4.74316
  4.23697
 -0.71268
  6.03814
 -3.96331
 -4.87032
 -3.51002
  3.02206
 -6.70596
 -3.20032
  7.29308
  6.96481
  4.89909
 -2.43914
  1.86455
 -0.84969
 -1.39812
 -0.74014
 -2.96048
  3.56421
 -7.09520
  4.05411
  0.85134
 -5.01857
  2.21138
 -2.55266
 -6.53922
  6.06583
 -5.21432
 -4.92120
  1.89503
 -4.00755
 -4.55673
 -3.37911
  6.94449
  0.37051
 -4.40296
 -6.58052
 -7.31839
 -2.78269
 -7.29802
  0.13075
  2.71841
  5.35804
 -4.24070
 -3.84072
 -1.79671
 -6.77907
 -3.53431
  3.50615
 -0.94642
 -6.53709
 -2.58083
 -1.59479
  5.88558
  2.02982
  1.14452
 -3.71232
 -5.34990
  2.27349
 -2.78422
  1.79878
  6.54654
 -4.27518
  2.04009
 -4.13677
  5.44751
 -6.12754
  5.11830
  2.11161
 -2.27337
  2.33422
  5.27691
  0.55982
  2.28487
  0.78916
 -6.57879
  3.45323
  4.25352
 -3.60749
  3.15624
  5.75900
 -4.61170
  3.14548
 -3.87970
 -6.83823
  5.29476
  4.98981
 -4.19222
 -2.22435
 -0.63172
  4.87681
 -6.14018
  5.21743
 -5.35721
  5.76317
 -4.98109
  4.88041
 -0.48988
  5.60031
 -6.48432
  5.32078
 -7.18691
  0.52158
 -7.32055
 -6.45836
 -5.97248
  6.00559
  5.57405
 -6.25135
 -3.49461
  2.82682
 -5.68363
 -0.77759
 -3.92551
  6.02146
 -3.30139
  3.87897
  6.01590
  0.19307
 -6.02989
 -1.80621
 -4.44025
 -5.22002
  5.20311
 -5.63558
 -3.41420
 -0.82871
  5.19834
 -1.96412
  1.71664
  5.77678
 -3.73770
 -0.91988
 -1.29784
 -5.45034
  6.32539
 -2.93429
 -0.34550
  0.28194
  1.17794
 -0.44419
  3.04673
  4.97267
 -1.27874
  2.39794
 -4.81823
  2.89570
  6.68314
  2.85405
 -5.06031
  5.45048
 -6.48011
 -0.00718
 -0.79900
  4.71167
  2.38652
 -4.57183
 -5.99046
  4.75348
  5.94916
 -0.07056
  3.12325
  1.11262
  6.32436
  5.35286
  4.03238
  2.56082
 -5.21040
 -0.57898
 -0.04899
 -2.47587
 -4.78509
  6.88102
  0.34195
  2.53121
 -4.37718
  6.89792
  5.05763
 -5.17639
  1.50224
  2.18697
  6.58281
 -6.58668
 -0.29951
 -5.78606
  6.84296
  0.88226
  6.92750
  5.36131
 -6.78213
 -2.74957
 -1.78584
  1.11220
  6.63019
  4.51763
 -6.61386
  1.66181
 -1.41719
  5.34886
  0.80499
 -5.43422
  4.08334
  2.52209
 -2.57570
  0.56579
 -4.19487
  2.74019
 -5.16474
 -7.03659
 -6.24445
  3.58946
  1.64162
  3.92309
  3.31995
  1.72831
  1.54427
 -3.36711
  5.30689
  0.87333
  2.73597
  2.93471
  2.56774
  6.20677
 -1.92631
 -2.11138
  6.01531
  4.22184
  2.56822
  3.81272
  5.29265
  7.29895
  0.83979
  0.08006
  4.87450
  1.35748
  5.44256
 -4.17793
 -0.34346
 -5.97714
  4.15217
  4.51246
 -0.55300
  6.61290
  1.04846
  5.83103
 -2.13026
  2.06213
 -2.79784
 -6.00722
 -1.09167
 -4.15705
  6.69720
  0.82626
  4.67055
 -2.20053
  2.60420
 -0.99677
 -2.45385
  5.80450
 -0.36146
 -1.61113
  0.90809
 -4.73034
  7.07372
 -1.57648
 -3.12015
 -3.42637
  3.14445
 -5.55083
  2.66195
 -6.33558
  6.13588
  5.34443
  7.12370
  2.47494
  1.01100
 -0.17112
 -4.02220
 -2.55406
  2.82129
  2.30297
 -5.28742
  7.05527
  7.06370
 -7.38974
 -4.49728
 -6.18220
 -1.99566
  5.80074
 -2.32727
  5.97097
 -4.35074
 -1.08277
  3.40495
  1.31683
  6.34146
  5.79950
  2.53996
  6.52468
  4.11001
 -4.10802
 -0.06499
 -4.94176
  3.64820
  5.83684
 -2.49463
 -3.86145
 -0.55409
  4.52768
  6.77279
  3.89277
 -5.44799
  1.16658
 -3.72007
 -2.20793
 -2.20984
 -4.83322
 -3.62443
 -1.33674
 -5.59984
  7.29066
 -0.62442
  5.29052
 -2.83120
 -0.07866
  3.19476
  5.59864
 -6.51527
 -2.80615
  4.44816
  7.25810
  4.65288
 -2.05385
 -6.49579
  0.99095
  2.39270
 -5.28220
  0.56174
 -6.16233
 -1.65696
 -2.51972
 -4.42456
 -6.40413
  1.58126
 -1.25599
  6.40032
 -5.08864
  13.33373
  14.65143
  18.60055
 -5.80688
  1.38564
  4.26407
  16.44520
  23.20852
  10.02427
  10.48812
  13.53490
  15.16793
  10.99220
  9.75552
  8.80010
  16.36951
  0.45313
  12.36500
  19.35772
  20.82185
 -5.55491
 -0.06274
 -0.83972
 -1.64026
  0.85985
  4.34985
 -6.49760
