# vtk DataFile Version 3.0
Surface Data
ASCII
DATASET POLYDATA

POINTS  1003 float
 9.037186 -2.981241 -11.517834
 8.185630 -7.409676 -11.241139
 3.638045 -7.447626 -20.624195
 6.733466 -2.053151 -16.847483
 4.367936  0.163979  1.090791
 0.100866 -18.637808 -11.481065
 2.445075 -5.388090 -4.063521
 7.201306 -9.471678 -12.710377
 6.979933 -9.786171 -10.409287
 6.696779 -10.019894 -14.220229
 8.925651 -5.183127 -11.583006
 8.182660 -7.328853 -13.215026
 8.678028 -4.795594 -13.324718
 1.742618 -10.273036 -20.792938
 4.457160 -11.301406 -19.013401
 5.906116 -9.331566 -18.189400
 6.633949  4.832641 -2.588548
 7.179027 -0.835280 -3.042691
 8.512040  1.297708 -6.452682
 6.631405 -2.736301 -4.360250
 9.081636 -1.246232 -8.897992
-3.111619 -11.084676 -19.445272
 5.746073 -11.388791 -8.631622
 2.813780 -16.448338 -7.102466
-1.595472 -11.289488 -3.868557
 6.668788 -10.740968 -10.872022
 6.687658 -10.670917 -12.352287
 6.194003 -11.971877 -11.804461
 7.637939 -8.661202 -11.959476
 5.331277 -12.587153 -15.300234
 7.229764 -8.819152 -14.278749
 6.467930 -10.109195 -15.159334
 6.539616 -9.414520 -16.036598
 6.045954 -11.386836 -14.658439
 6.169683 -11.563405 -13.584108
 8.860951 -3.716526 -12.657968
 8.020358 -7.086451 -14.129839
 7.233146 -9.148639 -13.559587
 7.738213 -8.338457 -12.963492
 1.462427 -4.133817 -20.953650
 4.055463 -9.719086 -20.153339
 2.822327 -10.691220 -20.326096
 3.027242 -9.018114 -20.747572
 0.769911 -10.058758 -20.968716
 6.376785  2.604329 -13.737308
 8.643254 -1.219936 -12.092935
 6.894436 -1.250867 -16.117895
 7.713803 -1.525966 -14.614069
 7.635880 -2.659467 -15.312771
 8.051416  0.014058 -12.709585
 8.187996 -1.108399 -13.293518
 7.695079 -0.378699 -13.805573
 5.331487  0.255694 -17.849230
 6.032890 -2.044262 -18.082901
 5.657653 -0.759358 -18.036831
 6.715097 -0.330162 -15.788401
 4.630302 -12.008944 -17.861391
 5.052329 -8.898547 -19.618914
 5.664822 -10.543567 -17.608650
 5.978672 -3.215464 -18.460768
 8.511564 -3.794943 -13.695209
 8.224105 -5.148167 -14.456769
 8.040391 -3.450800 -14.701678
 7.110106 -2.924174 -16.404222
 6.276354 -6.043134 -17.933653
 6.599843 -4.952257 -17.407078
 6.640189 -6.839804 -17.247896
 4.508566  2.805675  1.252051
 6.408306 -1.789091 -3.167591
 7.550952  3.154781 -4.274161
 6.085544 -0.041604 -0.598137
 6.965809  2.621316 -1.673962
 8.329359 -1.163369 -4.991775
 7.758615  0.618690 -3.445440
 5.073697 -2.458963 -2.805914
 6.625370 -9.862096 -9.400121
 8.050498 -7.197639 -10.125607
 7.373290 -8.423611 -9.786654
 6.917717 -8.367374 -8.806607
 6.197251 -8.335421 -7.870332
 9.106574 -3.657265 -10.899019
 8.296103 -5.014131 -8.118159
 8.876856 -5.419060 -10.714121
 8.575954 -6.211433 -10.465740
 5.560524 -5.693949 -5.987433
 6.427819 -6.529017 -7.105542
 9.131536 -2.360565 -10.283456
 8.410344 -0.114337 -11.932566
 5.609923 -3.230123 -4.120475
 8.562532  0.811716 -10.035439
 8.560098 -2.112854 -6.096107
 1.697362 -13.223867 -18.770761
 6.240424 -11.431125 -9.951063
 5.452223 -13.113351 -9.072037
 6.192208 -11.961932 -10.924147
 5.732300 -12.974669 -10.146087
 5.464013 -13.160516 -13.823707
-7.042100 -10.436763 -3.420609
-7.194928 -12.205776 -3.977544
-6.399145 -18.465942 -11.441338
-9.749565 -12.732715 -13.378473
 3.595636 -15.018811 -6.649050
 0.836075 -16.668320 -4.698745
-0.594996 -15.305207 -3.868707
 0.964795 -17.832975 -8.857194
-4.257556 -16.384493 -4.812776
 4.020721 -15.826460 -9.282505
 4.084364 -15.701694 -13.612132
 5.297027 -10.276822 -7.578577
 3.591417 -8.733231 -5.875953
 2.902248 -10.355914 -5.474072
-2.829374 -10.122774 -3.647357
 2.169755 -13.839222 -4.527176
 1.045565 -14.165178 -3.968966
 3.975259 -4.116389 -3.875157
 1.216501 -2.355574 -20.872540
-3.299939 -0.786498 -1.129729
-8.047782 -7.080218 -17.737514
-8.772289  1.095507 -9.470450
 2.429831 -4.162521 -3.071689
-7.747263  1.286298 -13.406067
-5.830883  0.097971 -17.163494
-2.308054 -9.629819 -20.303665
-6.709980 -3.414176 -18.846546
-5.743095 -5.061636 -20.102840
-5.850972 -6.977140 -19.829437
-5.359466 -2.622178 -19.909973
-1.781852 -4.209005 -21.204449
 5.725661  2.989659 -14.869844
 5.018872  3.042783 -16.070061
 3.398068  5.524010 -15.114413
 4.034038  2.072401 -17.919638
 3.574810  3.681438 -17.011702
 1.807063 -1.539963  0.313562
 3.972614  6.471756 -0.212545
-6.289044  3.858943 -12.028880
-9.274902 -0.117920 -11.871328
-8.982008 -0.646738 -14.120040
-9.628874 -2.592163 -15.018270
-9.994341 -9.198916 -6.845981
-8.367327  0.935618 -6.231416
-1.186676 -9.541476 -3.870581
-4.804374 -1.801326 -1.791326
-1.850310 -8.153185 -3.380663
-8.754111 -1.824665 -3.468493
-10.472332 -6.000216 -5.277926
 5.862741 -4.070556 -18.640146
 5.474710 -4.683313 -19.106602
 7.346944 -5.775126 -16.048965
 8.825505 -2.008697 -7.052488
 7.159962 -4.871683 -16.441633
-2.425663  4.006895 -17.000109
-5.512764 -5.007314 -1.873992
 8.638707 -3.458630 -7.401855
 6.851665 -5.842017 -16.925432
 5.792385 -6.864291 -18.759583
 8.227097 -4.095043 -7.055458
 4.583054 -14.404883 -14.518215
 5.475461 -9.418124 -19.035278
 7.767784 -5.785628 -15.295601
-3.310881  3.863410 -16.046671
 0.220423 -9.083013 -4.225341
 5.359285 -3.556896 -19.308073
 0.442839  1.135852 -20.001387
 7.045543 -6.524729 -16.493349
 8.377312 -3.070130 -6.367371
-4.213207  1.941095 -17.443491
-7.047752 -2.474026 -2.264020
 5.225537 -7.595543 -19.504536
 3.602809 -6.494438 -5.201469
-3.625170 -1.622386 -20.554445
 5.247238 -14.169047 -12.441204
-7.394693 -1.288856 -2.879578
 7.417156 -6.736574 -15.698620
 8.213608 -2.179737 -5.403825
 6.402810 -8.081463 -17.531500
 6.336308 -4.031880 -17.890612
 7.455014 -3.799939 -15.890620
 6.540304 -3.049208 -17.478165
 6.269839 -9.333741 -17.157417
 5.261963 -10.483809 -18.644098
 8.176280 -4.324887 -14.600814
 4.565425 -3.524303 -20.028391
 5.043259 -14.400523 -9.654607
 7.113036 -8.012565 -15.664886
 4.610083 -6.899352 -20.010633
-2.497824 -1.653089 -20.964489
 4.896433 -4.369747 -19.718082
 8.955688 -3.386622 -8.637884
 4.788996 -10.180573 -19.492826
 7.951753 -6.352292 -14.768488
 6.214083 -3.977728 -5.192495
 4.349824 -8.267703 -20.205961
 7.628851 -7.241965 -15.003138
 6.872935 -4.687656 -6.194496
-6.729117  1.354798 -4.626451
-0.376293 -1.494807 -20.975534
-1.834246  6.515234 -10.574711
 7.945870 -1.019248 -4.261624
-2.529600  4.611873 -4.692330
-8.778115 -0.234227 -4.863716
 8.405672 -5.952284 -13.852276
 5.019518 -4.646298 -4.972827
-2.731896  4.726490 -15.037467
-9.957355 -4.036544 -14.868392
 8.815099 -0.566360 -6.680394
 5.532350 -2.585723 -19.049355
 1.502960  0.643425 -19.988804
-5.077305  1.249741 -16.898134
 6.030926 -10.365411 -16.694365
 8.042689 -2.236944 -14.308232
 8.424137 -2.395968 -13.446853
 5.380538 -11.706877 -16.636717
 4.092376 -15.264757 -8.100471
-10.078542 -6.665233 -10.163479
-10.572313 -5.880013 -6.729504
 7.469388 -8.022371 -14.671518
 6.377417 -1.056735 -16.985943
 1.466754  3.181800 -18.288288
 2.741039  0.518830 -19.695282
 6.941463 -9.019746 -15.017589
 7.254040 -1.893565 -15.756269
-5.703593  2.038693 -4.510058
 8.705953 -4.532337 -8.638179
 3.766505 -11.105254 -19.701908
 8.413458  0.315625 -5.205450
 8.147644  1.498851 -4.771235
 2.953153  7.463322 -5.563620
 8.459323 -6.511877 -13.349648
-1.577982  5.183284 -3.311265
 5.108900 -1.596688 -19.204264
 0.310581 -3.164804 -21.033592
 3.459805 -2.230861 -20.432697
 1.611230 -17.315798 -6.864062
 6.006493 -10.915236 -15.780867
 4.821783 -13.352278 -7.847731
 7.727376  1.766880 -11.093147
 5.527419  5.787722 -11.442269
 2.436420 -12.116790 -4.882099
 8.802543 -2.554739 -12.361523
 3.073594 -13.296830 -5.247343
 7.786378  2.831086 -5.986251
 3.579071 -11.923327 -5.857254
 5.553495  6.704093 -6.564482
 8.959257 -4.348832 -12.177033
 2.428655 -16.221386 -5.688604
 2.916801 -14.699585 -5.344126
 1.738935 -15.567268 -4.569710
-6.643352 -4.836773 -19.249004
 6.643234  3.262354 -12.116749
 3.856830 -13.431841 -6.249022
 6.827020  4.718052 -4.151196
 8.742205 -5.580637 -12.841512
 2.648904 -11.932841 -19.638838
 1.362235 -17.152866 -5.687082
 7.686503 -8.102920 -13.831803
 7.255166 -0.832944 -15.073432
 2.536438  3.986486 -17.233957
-3.960558  1.448329 -2.053276
 1.816928 -7.142138 -21.172344
-7.476031  1.889158 -6.800174
 2.237879 -8.613750 -5.062081
 9.042264 -4.242156 -10.186452
 2.844012 -4.405969 -20.712498
-6.646186 -7.828463 -19.012032
 1.358837 -12.535140 -4.177228
 7.698294  1.927869 -3.530330
 4.795839 -0.301556 -18.851353
-6.624591  0.246190 -16.057413
 1.689558 -16.598131 -5.011545
-5.987707 -3.652008 -19.719316
-10.585011 -4.659126 -8.016750
-7.062100 -0.652742 -16.576632
 7.372118  3.089169 -3.116667
 5.804238 -12.739057 -12.923575
-9.383594 -1.629721 -14.590177
 7.097932  0.616027 -2.031857
 3.809084  0.232553 -19.329712
-6.447104 -6.211158 -19.468813
 5.156530 -13.626250 -8.534698
 8.836935 -4.949677 -9.680067
-0.606488 -3.934708 -21.152243
 1.432127 -11.803476 -20.009598
-4.867965 -4.513115 -20.693640
 8.602218 -6.434603 -12.505003
 7.691035  1.303321 -12.032725
 1.561125 -8.755320 -21.145939
 7.566077 -5.385905 -7.379508
 0.440720 -15.555861 -4.030460
 8.638155 -6.374258 -11.504898
 5.850905  4.464908 -0.464254
-8.626927 -0.889728 -15.115306
 6.710010 -10.394606 -13.199124
 8.439189 -5.794309 -9.334417
-1.697725 -5.637600 -21.157726
 3.478514  4.561131 -16.207186
-0.609584 -16.532646 -4.427384
 5.825123 -1.297210 -1.847766
 6.032206  0.162282 -16.740482
 5.813612 -12.902403 -12.173568
 4.197831  2.954153 -17.109463
 7.661810  0.693280 -12.840665
 4.278032 -10.284578 -6.555539
-3.913965  3.918538 -5.640900
 4.547427  0.999365 -18.209370
 6.465758  1.382698 -0.639438
 0.990666  5.135767  1.953476
 0.632847 -5.273456 -21.129301
 2.273917  5.875172 -15.019798
 0.738662 -11.039083 -20.588882
 5.013573 -8.038252 -6.688176
 5.445092  0.970764  0.491806
 2.393160  2.115797  2.250635
-5.417465  4.391855 -12.540413
 3.303961  6.367928 -13.861637
 8.226745 -7.433486 -12.276401
-3.694551 -15.466345 -4.307121
-3.859406 -6.120386 -20.807833
 4.394188  4.918276 -14.986320
 6.235011 -11.706346 -12.670875
-0.337753 -6.403480 -21.212057
[...]
POINT_DATA  1003
SCALARS atrophy float 1
LOOKUP_TABLE default
  14.53245
  10.66732
 -5.20295
  17.44387
 -6.32112
  1.85830
 -6.83145
  23.86354
  14.41771
  15.24489
  13.04927
  17.79703
  24.53038
 -1.63162
  5.31631
  15.75286
  14.69907
  15.23655
  14.71534
  22.27916
  24.66462
 -0.77674
  14.71534
  1.30893
  5.89686
  16.35571
  18.25198
  21.68830
  20.34635
  15.70350
  22.96687
  10.82112
  25.08751
  15.07885
  24.93744
  19.60348
  18.82569
  19.79876
  10.88825
  3.31528
 -6.74758
 -6.12518
 -0.95976
 -5.26762
  24.26863
  21.79456
  19.55532
  22.50793
  17.64350
  18.88153
  10.97384
  19.37975
  12.20314
  17.62352
  10.77062
  13.35278
 -4.97095
 -2.92175
  16.13007
  22.04213
  16.31435
  17.86874
  19.45946
  11.72267
  17.58382
  24.18249
  12.17889
  3.65869
  24.30813
  18.81953
  13.68381
  18.68266
  18.00339
  19.48671
  0.62398
  21.62126
  19.74474
  20.31921
  14.99317
  19.46158
  22.45774
  22.62494
  18.32449
  20.19879
  17.94560
  22.85278
  15.08432
  14.48169
  22.45678
  18.94572
  15.14481
  6.46925
  24.82575
  16.63941
  11.33879
  12.28741
  14.03832
 -6.96761
  0.44608
 -1.25352
  3.93594
  7.03805
  2.03577
 -6.37084
  5.67156
 -5.34993
  1.42515
  4.13280
  20.33333
  1.38254
 -4.20429
  4.37224
 -6.94747
  1.23544
 -4.37850
 -4.92489
  0.67275
 -2.07065
 -2.83269
 -5.01776
 -0.81434
  6.57835
 -0.95747
 -7.08068
  4.97668
 -2.67863
 -0.69790
  1.20800
  21.55114
 -2.11789
  7.40574
  2.44719
 -3.41171
  6.69976
 -4.78272
 -2.00207
  1.04528
 -1.29992
 -6.99170
 -1.21076
  0.94397
 -4.55769
  6.50502
 -2.30798
  7.14077
  5.18990
  14.67116
  11.66113
  12.16245
  22.22254
  13.52869
 -6.61106
  0.79122
  21.70630
  23.54873
  22.36700
  18.84847
  4.33806
 -0.82646
  19.13074
 -2.47892
 -1.15341
  12.97179
  5.48253
  14.65204
  13.42698
 -1.55871
  1.26163
 -3.59051
  3.30153
  2.01523
  8.81190
 -3.23299
  14.50924
  20.78453
  21.53302
  11.76256
  22.33507
  18.36254
  22.60051
 -3.76601
  23.65282
  7.59598
 -1.42352
  23.37007
 -0.52601
  5.92654
 -0.82301
  12.49243
  0.21040
  21.85513
  21.53130
  4.64070
  22.05561
  13.39783
 -6.80104
  3.39690
  2.45220
  16.81329
  1.57193
 -6.38911
  20.53136
  21.11490
 -5.09371
  4.35677
  20.20557
  11.70269
 -5.62564
  4.74326
  14.05777
  18.90087
  17.62452
  7.64841
  3.26163
  2.96817
  1.76279
  14.19048
  24.90723
  0.76138
  0.64692
  17.00648
  19.90639
  5.05373
  12.93118
 -0.64494
  25.24355
  17.10628
  1.27559
  17.61980
  1.10124
 -3.79076
  3.30257
 -5.66017
 -0.88917
  11.88255
 -1.17020
  23.46999
  16.00863
  5.00008
  21.42735
 -3.54769
  22.37866
  3.96309
  19.44159
  13.58941
 -5.28954
 -5.36682
  6.29994
 -0.34308
  12.95505
  3.10863
  20.66869
  23.35549
  3.51316
  3.92467
  24.18861
  16.36345
 -3.10345
  5.79426
 -0.51440
 -5.42850
 -3.55739
  11.76461
  0.78253
 -7.36919
 -1.32936
  25.02514
  8.23648
  1.29156
 -5.47072
  6.95772
 -1.01066
 -0.16509
  16.13360
  14.99115
  0.57685
  17.99939
  3.96152
  4.70208
  8.18146
  16.36651
  3.27585
 -3.16532
  5.32913
  13.61309
  22.51060
  3.55835
  16.21507
 -5.98965
  11.88482
  18.56081
  6.50610
  24.23197
  12.44285
 -0.52536
 -1.37089
 -6.19792
  18.76956
  24.01471
  11.43510
 -0.73686
  15.66596
  6.21400
 -2.53760
 -2.69098
  17.99257
  0.56297
  1.17663
  5.39892
  2.89723
  17.83841
  11.00442
  5.64247
 -4.42800
 -3.12305
  20.37542
  5.36828
  3.79936
 -6.50250
  11.55820
 -4.79179
  20.33928
  0.88921
 -3.47318
 -5.14611
  5.43881
  11.48734
 -0.84775
  4.71438
  6.02297
  20.33658
  22.90171
  2.72451
 -3.59100
 -0.59122
  22.85645
 -5.66604
  11.20655
  21.48126
 -6.13595
  10.61891
 -3.04415
  0.84690
  6.44177
  14.67167
  7.42669
  22.57839
  23.34057
  21.65180
  12.06923
 -1.50584
  20.90507
 -0.14595
 -0.47515
  4.92613
 -1.71834
  17.65131
  21.97331
  11.80005
 -5.19817
  15.37059
  22.42371
  0.09773
  14.72131
  18.25080
 -2.06609
  14.59305
  16.50477
  23.86992
 -4.46891
  25.23565
  24.99055
  19.11205
  17.07667
 -6.33660
  5.94225
  13.16975
  1.76886
  1.59517
  14.60574
  25.40766
  18.24379
 -0.86732
  22.45608
  24.43711
  9.01544
  20.07970
  10.55518
  11.06036
 -6.83859
  13.01262
 -2.95804
 -1.08532
  18.91558
  0.07491
  10.81433
 -2.10101
  2.25420
  25.24908
  11.13200
  17.54307
 -4.62007
  18.84048
  17.70360
  19.49296
  6.60278
 -2.55720
  18.59549
  2.60683
  16.04172
 -1.68205
  2.40223
  21.17472
  20.67256
  20.02013
 -3.61803
  4.01357
 -0.52379
 -5.96728
  19.26522
  17.28020
  9.54818
  15.66276
 -6.76103
  13.69054
 -5.20144
  18.52559
  24.46496
  12.10832
  2.55228
  24.53762
  3.29129
  1.62744
  24.45919
  24.49639
  19.40599
 -1.81565
 -0.68814
  25.39524
  21.63378
  15.51695
 -2.18376
  0.48935
  24.64348
  18.08822
  10.01750
  18.43495
 -6.70614
  13.40234
 -1.11808
  24.70821
  6.36337
  22.62436
 -7.26805
  19.07654
  3.34210
  21.29705
  18.99916
  17.79537
  21.29921
 -5.02978
  23.89492
 -1.35601
  24.80733
 -6.93399
  25.33281
  13.03684
  14.22947
  2.01283
 -5.45445
 -7.32990
 -2.89545
  7.27285
 -6.96023
 -1.08810
 -3.07018
 -3.50022
  4.24009
 -4.39937
 -7.27229
 -4.04183
 -0.61196
 -0.72886
  0.28229
 -3.98377
 -3.81278
  0.07820
  0.13245
 -4.85275
 -6.20381
  2.75806
  3.96234
 -4.82892
  3.62481
 -5.85514
  7.42355
  2.43209
 -0.15379
 -2.96380
 -0.30157
  18.66972
 -5.45678
  3.48676
  4.42846
  10.71218
  5.47897
 -5.65966
 -1.90598
  1.40902
 -5.43344
  10.92742
 -2.88263
 -3.92327
 -6.33770
  2.90584
 -4.80763
  2.01876
  2.19264
  1.39200
  1.05171
  4.87882
 -4.67751
 -3.90216
 -3.36260
 -0.76858
 -3.66242
 -2.87851
  2.79433
 -6.22008
  6.50066
 -1.88205
  0.36719
 -3.40079
  7.03435
  5.35505
  5.49030
 -1.01756
  0.22840
  5.38166
 -2.61608
 -1.82038
 -4.09470
  5.84894
 -6.59439
 -3.54435
 -1.88107
  2.53479
 -2.05640
 -6.44015
  4.18348
 -6.41955
 -1.21152
  6.03493
  3.15510
 -0.68802
  6.19733
  2.07555
  4.77049
  3.19863
  0.91506
 -1.58404
  1.48017
 -4.67340
 -5.80800
 -2.32459
  0.57551
  5.05287
  2.88937
 -5.06857
 -1.28325
 -6.12506
  7.26689
  6.15680
 -7.34580
 -6.49402
 -0.89155
 -4.19208
  23.89155
 -5.45908
  5.74657
  4.85224
 -1.77747
  2.95835
  6.04255
  1.11358
  0.30189
  3.17212
 -3.19743
 -5.28052
 -0.39872
  0.43911
 -5.74482
 -4.33638
  0.13671
  4.35633
 -7.02857
 -1.16898
  6.95273
 -5.23458
 -5.59640
  6.88617
  1.62690
 -4.65335
  0.56346
  2.49429
 -7.36289
 -0.88357
  3.09307
 -1.00284
 -3.36451
  6.04394
  5.68769
 -7.37813
  6.56970
  3.33451
  7.40112
 -1.11473
  0.83395
  5.67334
  6.55578
  4.11103
  6.41103
  4.09249
  6.02496
  7.30826
 -1.17176
  2.28798
 -5.85639
 -6.81268
  7.41559
 -5.12964
  5.35027
  1.69507
  7.16340
  2.68110
 -2.69260
 -6.09660
  5.68312
 -5.62451
  3.49791
  3.57544
 -7.37799
 -1.08506
 -0.20293
 -1.04318
 -1.19352
 -5.36755
  4.64395
  6.28376
  3.40723
  0.76952
 -4.50425
  3.87690
  1.02734
  1.07841
 -5.16618
  2.45892
  1.22779
 -1.97419
  7.05384
 -3.63742
  5.83300
  0.89752
 -3.70268
 -1.35767
  1.94756
 -2.74482
  2.77897
 -6.69475
 -6.89559
  5.58843
  5.01623
 -5.01482
 -0.30921
  6.05242
 -6.76457
  5.80489
 -6.42057
  5.69636
 -2.46596
 -2.06183
  2.11113
 -2.02023
  3.78273
 -1.56022
 -2.07946
 -3.97846
  4.42198
 -3.42203
  0.74020
  5.83592
  4.86738
  2.99907
 -5.70300
 -1.33209
 -6.28650
  5.22004
 -2.42297
  7.23353
  5.41557
 -6.82920
  0.89393
  0.16722
  3.96023
 -1.77044
  3.48320
  5.92167
 -5.42569
 -3.57995
  0.08969
  5.66788
 -1.31790
  2.73217
  1.70753
 -3.95909
  0.37769
 -0.79242
  2.18934
  6.78843
 -4.25464
 -5.20411
  3.67389
  2.16827
  2.32408
 -0.11246
 -6.07378
  1.33671
 -3.32493
 -5.92615
 -4.82753
  2.66398
  2.53845
  2.66447
 -3.11595
 -2.71875
  5.98030
 -5.23395
  6.02986
 -5.48428
  2.35305
  4.96371
 -4.39124
 -3.31238
  1.73709
 -2.71580
  6.93051
 -5.73196
 -7.15104
  5.82950
  6.18002
 -2.40799
  3.55339
 -4.38016
 -0.49428
 -3.03866
 -5.61923
 -7.39880
  2.78699
  5.56136
 -3.21347
  1.46554
  6.58371
 -3.54496
  7.04685
 -3.10110
  7.09661
 -1.87899
 -6.05616
 -2.41582
  7.39223
 -3.41899
  0.32209
 -1.72801
 -4.09892
  1.64286
 -5.74216
  3.85431
 -2.83030
  4.36015
  1.93793
 -5.63609
  0.56642
 -7.47444
 -2.48366
 -4.37386
  7.18374
  1.73165
 -4.54731
 -1.98234
 -1.90352
 -3.37959
 -3.54328
  6.42332
  5.46055
 -4.08685
 -7.25750
 -1.66027
 -3.53965
  5.85819
  6.68829
  4.02744
  3.63588
 -6.60406
 -0.88056
  4.28567
 -4.35763
 -2.45671
 -5.80775
  1.92352
 -7.46429
  1.81018
  2.24826
  5.29345
 -1.44635
  0.06086
  4.45321
  5.65482
 -5.66058
 -0.18891
 -6.91472
 -2.25201
 -3.04947
  2.60448
 -1.97411
 -0.66839
  1.65645
 -6.40002
 -5.93506
 -4.22909
  3.10753
  3.25127
  6.09060
  0.78774
  6.62917
  5.97227
  6.64804
 -1.34822
  4.33969
 -5.17024
  4.79399
  4.75652
  0.19574
  0.35697
 -2.00483
  0.48454
  0.61025
 -7.29574
 -1.50906
 -1.87853
  1.40551
  5.35990
 -5.02682
 -3.35531
 -0.04170
 -2.82095
  4.09680
  7.40745
 -4.80313
 -7.23113
  1.49420
 -2.27730
  0.23196
  3.69725
 -5.65276
  4.59243
  1.92649
 -5.79814
 -1.17199
  5.66700
 -0.85235
 -0.54011
  3.30230
 -2.44401
  7.33656
  3.32051
 -3.12520
  5.34090
  2.60896
 -0.56575
  3.52547
  0.63305
 -0.20022
 -5.50528
  6.04623
 -5.47674
 -6.54571
  3.21836
  1.16627
 -6.50015
 -6.23545
  1.85423
  3.79377
  6.91868
  6.98616
 -3.60693
  0.80729
 -6.21465
 -2.95429
 -3.53246
 -6.88709
 -4.34768
 -1.33982
  1.31554
 -2.52333
  1.00236
  0.08752
  7.00551
  3.52558
  4.45647
  4.51913
 -3.30693
 -6.65653
  4.96468
  3.72982
 -4.98943
  6.61226
 -5.14458
 -6.54311
 -1.95088
  2.80910
 -4.82133
  5.35040
  4.95661
 -4.93307
  5.99449
 -3.55468
  5.86050
  7.03440
  6.54405
  3.79774
  4.24181
 -0.89361
  0.67984
  5.18009
 -4.32933
 -4.35432
 -0.90908
  7.29812
  3.75714
  3.10409
  6.46766
  0.67607
  2.02905
 -5.43169
  5.26386
  0.51062
  6.96916
 -4.39671
  4.58652
  5.97836
 -1.42248
  3.75447
 -2.17410
 -4.24503
  6.11842
  3.84450
 -0.25145
 -5.86149
  0.15488
  2.27579
 -0.69872
  0.90529
 -6.92013
 -3.01500
 -6.95080
  3.95234
 -5.29539
  5.91838
  5.05295
  0.34894
 -4.72780
 -4.03663
  4.34664
 -2.52541
 -1.52787
 -2.80640
  18.77093
  11.47370
  19.48837
  5.80521
 -4.02547
  3.47766
  13.51734
  23.89691
  13.77637
  12.17470
  23.70421
  12.76141
  15.43262
  16.53009
  11.68736
  20.89601
  5.47387
  23.66364
  12.57911
  20.60204
 -2.31774
 -1.14239
 -4.80061
  7.15545
  3.39480
 -5.68615
  2.43912
