# vtk DataFile Version 3.0
Surface Data
ASCII
DATASET POLYDATA

POINTS  1003 float
 8.658820 -2.958789 -11.493751
 7.870257 -7.367422 -11.285872
 3.635283 -7.433219 -20.582760
 6.515678 -2.086432 -16.545023
 4.214885  0.126592  0.237737
 0.718814 -19.170158 -11.599940
 2.711700 -5.471887 -4.081784
 6.937852 -9.301083 -12.704351
 6.755613 -9.726845 -10.471352
 6.473371 -9.708274 -14.099679
 8.545507 -5.111760 -11.583318
 7.883584 -7.338726 -13.183558
 8.363942 -4.755442 -13.306886
 1.691013 -9.805158 -19.756598
 4.080031 -10.968378 -18.510897
 5.503442 -9.064228 -17.731926
 6.395976  4.409957 -2.737333
 6.901328 -0.626246 -3.279812
 8.188991  1.275405 -6.432087
 6.334152 -2.640280 -4.615878
 8.696149 -1.251554 -8.889169
-2.973988 -11.205547 -19.640100
 5.642800 -11.413345 -8.521940
 2.676455 -15.960061 -7.150077
-1.583984 -11.450676 -3.194948
 6.445079 -10.574315 -10.940922
 6.476688 -10.351931 -12.379161
 6.062240 -11.590270 -11.852180
 7.355752 -8.599654 -11.989962
 5.338921 -12.451830 -15.289879
 6.949912 -8.662116 -14.152883
 6.212902 -9.744396 -14.960422
 6.208574 -9.078031 -15.752907
 5.942042 -11.037589 -14.561872
 6.099576 -11.169914 -13.548230
 8.517534 -3.687100 -12.634343
 7.745136 -7.072501 -14.073943
 6.964121 -8.987366 -13.486487
 7.449471 -8.298903 -12.935683
 1.486881 -3.974406 -21.634706
 3.798289 -9.438148 -19.430979
 2.642510 -10.274477 -19.440855
 2.924842 -8.748548 -20.072361
 0.808438 -9.591188 -19.943274
 6.497139  2.730692 -13.857767
 8.340601 -1.298500 -12.035553
 6.719888 -1.282255 -15.901663
 7.479915 -1.629033 -14.457622
 7.368389 -2.732057 -15.081651
 7.859544 -0.081742 -12.675863
 7.940912 -1.213328 -13.215399
 7.532262 -0.464970 -13.749189
 5.370194  0.542196 -17.898550
 5.893357 -2.024257 -17.878319
 5.612441 -0.595542 -17.962994
 6.659281 -0.285912 -15.716938
 4.346999 -11.827417 -17.654253
 4.767000 -8.772169 -19.108475
 5.277757 -10.193391 -17.238903
 5.852760 -3.282627 -18.310717
 8.218335 -3.783680 -13.646301
 7.968304 -5.108471 -14.407852
 7.773125 -3.473707 -14.564037
 6.847646 -2.979384 -16.078951
 6.132304 -6.144123 -17.816738
 6.420581 -5.010547 -17.194073
 6.414490 -6.813235 -17.016981
 4.230605  2.503382  0.894470
 6.120478 -1.594410 -3.614871
 7.289161  2.965669 -4.423457
 5.805457  0.247385 -1.211620
 6.733538  2.465725 -1.816163
 8.117713 -1.122694 -5.034654
 7.616400  0.682862 -3.495051
 4.917756 -2.303234 -3.510178
 6.463308 -9.878403 -9.392130
 7.750079 -7.142086 -10.201951
 7.142330 -8.414530 -9.842525
 6.761040 -8.418218 -8.793034
 6.149391 -8.447691 -7.766454
 8.704244 -3.592353 -10.895490
 7.974327 -4.909967 -8.222167
 8.489127 -5.311128 -10.748849
 8.219732 -6.115687 -10.527747
 5.502194 -5.750460 -5.992381
 6.312780 -6.590380 -7.067361
 8.732542 -2.339596 -10.268684
 8.159292 -0.210456 -11.882368
 5.418901 -3.140227 -4.507721
 8.280855  0.771210 -9.975277
 8.286907 -2.047347 -6.173738
 1.602982 -13.256519 -18.747271
 6.043941 -11.311880 -9.961810
 5.229456 -12.961916 -9.006183
 6.014615 -11.691392 -10.975535
 5.545947 -12.734803 -10.150495
 5.627860 -12.983288 -13.852210
-6.189627 -10.064430 -3.850413
-6.631126 -11.651241 -4.319204
-6.784254 -18.694786 -11.493722
-9.193933 -12.709036 -12.802660
 3.488130 -14.688926 -6.609114
 0.813911 -16.274040 -4.656708
-0.866735 -15.104447 -3.638026
 1.224060 -17.687254 -8.962193
-4.846766 -16.934072 -3.512927
 3.904676 -15.563972 -9.265541
 4.657218 -16.326443 -13.809778
 5.371484 -10.435263 -7.362379
 3.891840 -8.921653 -5.597271
 3.235552 -10.525240 -5.144613
-2.555899 -10.244834 -2.747966
 2.276858 -13.638638 -4.450841
 1.038446 -13.939904 -3.901607
 4.022906 -4.094195 -4.266573
 1.154718 -2.135400 -21.144423
-3.482693 -1.029128 -1.112954
-7.675055 -6.884539 -17.485708
-8.699334  1.334563 -9.575223
 2.619717 -4.173368 -3.418915
-7.771982  1.415598 -13.461255
-6.801296  0.800353 -17.757336
-2.133769 -9.754856 -20.333847
-6.748114 -3.473418 -18.767120
-5.543869 -5.358840 -19.713020
-5.756602 -7.195431 -19.515478
-5.387015 -2.674394 -19.686535
-1.658792 -4.401876 -21.352724
 5.873796  3.193525 -14.994772
 5.125670  3.318626 -16.180410
 3.278962  5.278866 -14.731198
 4.080479  2.376923 -18.054426
 3.564574  3.807006 -16.973757
 1.780658 -1.629541 -0.536404
 3.819604  6.181900 -0.328102
-5.925766  3.917408 -12.179893
-9.373104 -0.092973 -11.850739
-9.224842 -0.788003 -13.995433
-9.788377 -2.798679 -14.892296
-9.442094 -9.158616 -7.171678
-8.107053  0.851727 -6.206150
-0.891857 -9.829329 -2.960732
-4.942296 -2.133025 -1.953371
-1.452271 -8.412080 -2.200179
-8.142672 -2.563976 -4.337019
-9.478832 -6.148617 -5.871550
 5.788625 -4.201119 -18.622639
 5.496407 -4.883310 -19.337133
 7.136957 -5.729241 -15.881461
 8.506713 -1.945842 -7.122656
 6.942495 -4.869759 -16.211258
-2.264050  3.886380 -17.113630
-5.215186 -5.137937 -1.896919
 8.309890 -3.350149 -7.506056
 6.657895 -5.843094 -16.722649
 5.665121 -7.013592 -18.689213
 7.914800 -4.007300 -7.155457
 4.915867 -14.718307 -14.684631
 5.082277 -9.183002 -18.484995
 7.545188 -5.730937 -15.197367
-3.450241  4.138324 -16.328106
 0.596187 -9.371245 -3.533179
 5.369355 -3.678634 -19.494301
 0.596344  0.914998 -19.768608
 6.827142 -6.467192 -16.293314
 8.077403 -2.988502 -6.462409
-4.969083  2.615996 -17.970005
-6.813331 -3.065948 -3.138175
 5.091660 -7.698826 -19.352055
 3.804799 -6.611751 -5.107425
-3.587261 -1.535228 -20.207100
 5.502706 -14.029241 -12.486406
-7.139575 -2.037770 -3.626075
 7.182272 -6.656952 -15.551963
 7.950698 -2.120376 -5.472497
 6.080586 -7.934369 -17.190811
 6.167053 -4.111039 -17.671377
 7.200571 -3.822484 -15.639944
 6.321856 -3.092397 -17.162498
 5.880169 -9.008291 -16.777809
 4.842726 -10.151298 -18.138699
 7.919642 -4.300625 -14.521173
 4.677897 -3.624892 -20.547590
 4.854519 -14.144542 -9.621953
 6.819929 -7.842280 -15.454738
 4.616715 -7.063932 -20.153666
-2.352898 -1.586156 -20.493692
 5.005582 -4.553797 -20.205446
 8.578954 -3.276701 -8.711683
 4.406580 -9.861477 -18.841976
 7.707496 -6.310167 -14.705988
 5.995195 -3.950729 -5.354305
 4.219562 -8.226808 -19.851885
 7.369561 -7.176270 -14.893103
 6.645401 -4.686237 -6.246308
-6.597990  0.885084 -4.483778
-0.337962 -1.351557 -20.658354
-1.889863  6.537503 -10.652472
 7.727458 -0.945972 -4.315755
-2.682520  5.015532 -4.123209
-8.269707 -0.805388 -5.180563
 8.121467 -5.927510 -13.829451
 4.963619 -4.651919 -5.154130
-2.598446  4.811637 -15.190364
-9.968790 -4.115612 -14.782953
 8.498442 -0.564350 -6.706796
 5.467440 -2.612532 -19.023952
 1.485011  0.620096 -19.875587
-6.132582  2.146205 -17.565895
 5.685460 -9.980020 -16.387770
 7.775939 -2.322243 -14.170370
 8.136155 -2.453277 -13.368587
 5.157909 -11.457639 -16.473791
 3.864215 -14.936856 -8.062535
-10.605380 -6.796269 -10.114086
-9.900887 -5.919700 -6.925204
 7.186803 -7.927339 -14.543556
 6.266657 -0.999374 -16.808878
 1.639373  2.956205 -18.213591
 2.650147  0.663339 -19.715282
 6.650291 -8.771471 -14.826347
 7.013460 -1.972906 -15.498458
-5.650591  1.696820 -4.143774
 8.345836 -4.393426 -8.745371
 3.454885 -10.736982 -19.019009
 8.178615  0.305936 -5.231839
 7.903111  1.451525 -4.816590
 2.841577  8.029562 -5.338207
 8.154218 -6.510713 -13.328036
-1.535598  5.389486 -3.052271
 5.057693 -1.509289 -19.216860
 0.305725 -2.988539 -21.353323
 3.473558 -2.132129 -20.861902
 1.609342 -16.862741 -6.926158
 5.778828 -10.551624 -15.584367
 4.686689 -13.247475 -7.722813
 7.605820  1.788764 -11.102869
 5.407983  5.285649 -11.209231
 2.682953 -12.142081 -4.644129
 8.469556 -2.574540 -12.320153
 3.227226 -13.193373 -5.101619
 7.517519  2.801978 -6.023618
 3.802650 -11.994919 -5.606973
 5.507030  6.086983 -6.645506
 8.591337 -4.295250 -12.163105
 2.370967 -15.717023 -5.736245
 2.940759 -14.397292 -5.304370
 1.731803 -15.151137 -4.588610
-6.482276 -4.950376 -18.949265
 6.645765  3.268845 -12.135109
 3.912615 -13.331752 -6.099800
 6.619957  4.369267 -4.323975
 8.407052 -5.544233 -12.829069
 2.447098 -11.602554 -19.039658
 1.369383 -16.691696 -5.706019
 7.401439 -8.059910 -13.755878
 7.096571 -0.893762 -14.941748
 2.577931  3.907887 -17.106050
-3.963282  0.997552 -1.953174
 1.809151 -6.944041 -21.186785
-7.452508  2.081032 -6.632887
 2.618459 -8.823957 -4.674248
 8.639391 -4.134320 -10.219501
 2.953459 -4.365056 -21.514532
-6.584854 -7.826918 -18.668596
 1.514388 -12.508649 -3.981603
 7.514271  1.843093 -3.637450
 4.766604 -0.061049 -18.889135
-7.503713  0.838831 -16.529211
 1.677859 -16.076462 -5.066544
-5.900995 -3.819632 -19.429974
-10.246462 -4.573703 -7.981614
-7.801708 -0.315414 -16.982735
 7.137651  2.826950 -3.298557
 5.869650 -12.354454 -12.945527
-9.644918 -1.827648 -14.450735
 6.877753  0.820726 -2.224322
 3.743097  0.475989 -19.405357
-6.278870 -6.316273 -19.088959
 4.905610 -13.474863 -8.436000
 8.454183 -4.814321 -9.756135
-0.570435 -3.890361 -21.508303
 1.389411 -11.414400 -19.252558
-4.601056 -4.978944 -20.313871
 8.266657 -6.417886 -12.493362
 7.594593  1.292288 -12.058432
 1.536357 -8.410749 -20.470808
 7.307751 -5.355776 -7.433619
 0.331120 -15.245155 -3.958117
 8.282204 -6.318362 -11.521432
 5.542947  4.036085 -0.602271
-8.972723 -1.003050 -15.087173
 6.505972 -10.066483 -13.160166
 8.098462 -5.681176 -9.430671
-1.605008 -5.900921 -21.437981
 3.413755  4.532452 -15.999399
-0.777888 -16.435394 -4.099267
 5.560471 -1.027384 -2.611724
 6.079375  0.361316 -16.762823
 5.830661 -12.504780 -12.210324
 4.246570  3.227982 -17.201578
 7.556076  0.649114 -12.851580
 4.512053 -10.470286 -6.268950
-4.160232  4.335092 -4.993123
 4.585273  1.327249 -18.327991
 6.205009  1.500697 -0.880870
 0.920701  4.444320  1.401543
 0.631851 -5.152692 -21.692600
 2.266714  5.513773 -14.617203
 0.792088 -10.544190 -19.544127
 5.121184 -8.184364 -6.520585
 5.192038  1.032302 -0.017982
 2.227610  1.692078  1.639248
-5.113751  4.506962 -12.732110
 3.185869  5.884514 -13.409848
 7.912461 -7.423345 -12.276853
-4.294551 -15.456143 -3.317409
-3.655021 -6.695570 -20.856802
 4.286422  4.828932 -14.736145
 6.135036 -11.271684 -12.683819
-0.325028 -6.387432 -21.455919
[...]
POINT_DATA  1003
SCALARS atrophy float 1
LOOKUP_TABLE default
  28.91018
  16.62203
 -6.87713
  25.31451
 -0.01737
 -0.58004
  6.95933
  28.38245
  25.45173
  27.80181
  20.63664
  23.30020
  26.99690
  2.88080
  4.78877
  22.85502
  28.47443
  26.08611
  26.71265
  20.95481
  16.58284
  7.24256
  17.39182
  4.61261
  5.92604
  19.85563
  16.19272
  25.82409
  24.47542
  24.04183
  24.03781
  18.23910
  23.03564
  23.71364
  28.29659
  21.70288
  24.86859
  17.97270
  19.69933
  0.68324
  7.07513
 -1.07867
 -1.04072
 -1.94924
  17.87694
  20.00810
  18.42183
  24.90264
  16.33002
  22.27441
  25.70515
  25.69375
  27.17318
  23.07922
  26.60404
  22.88456
  6.13801
  7.83514
  20.31952
  23.10699
  28.74311
  25.83870
  22.32583
  19.10039
  26.98110
  25.13079
  16.19902
  5.61719
  21.46469
  27.96481
  25.79909
  15.47698
  20.02019
  18.54938
  0.93602
  17.42828
  16.89239
  16.09255
  22.91015
  16.57196
  16.72660
  25.27441
  18.16016
  24.63905
  17.29453
  17.98110
  18.70795
  23.72218
  18.90724
  22.95735
  27.27708
  6.31941
  18.62342
  20.06747
  22.63494
  18.98624
  22.94843
  4.42201
  0.07361
 -4.53384
 -5.46464
  5.65670
 -2.78202
  1.85791
  1.87125
 -5.58344
  1.49336
 -4.86803
  15.58392
 -3.45622
 -0.27886
 -3.80997
 -7.05530
 -6.84573
  0.12354
  1.32311
 -4.86093
  3.07452
 -4.02900
  6.13896
 -3.78558
  2.73458
 -0.78874
 -3.54795
  0.47922
 -3.68443
 -5.54331
 -1.65201
  15.61536
 -2.91433
  1.72413
  0.75659
 -1.53287
  4.44911
  1.92628
 -3.42349
  3.88417
  2.25620
  4.90914
  6.63601
 -3.41299
  5.68923
  6.72903
  0.17236
 -5.79678
  4.61299
  18.44387
  13.35073
  19.59281
  20.48157
  25.09403
 -3.73629
  0.50011
  19.14135
  16.37789
  22.54439
  27.36973
  5.53644
 -1.07696
  22.28024
  3.26170
 -4.80992
  17.20277
  5.56123
  26.63776
  19.30629
 -6.82995
 -0.73317
  0.49471
  1.81803
 -0.24310
  7.44536
 -3.70562
  25.83005
  20.10184
  23.15340
  17.14356
  15.97443
  25.08504
  17.56513
  3.84030
  21.00061
  7.81836
  1.50698
  15.27291
  3.66913
 -0.31185
  8.73035
  20.51683
 -6.37897
  24.02175
  22.94237
 -3.93488
  26.08685
  26.78948
  0.25356
  5.70565
  1.04621
  23.12859
  4.51058
  0.68454
  29.31598
  13.67369
 -4.39706
  4.15375
  18.94504
  21.63604
 -5.09590
  1.55460
  24.17645
  20.41073
  18.29252
  5.56562
  2.38927
  7.33985
 -7.37654
  17.12802
  16.22536
 -5.19686
  4.17855
  25.04476
  29.12310
 -0.18207
  23.35739
 -1.43152
  25.59082
  25.54454
 -0.79436
  21.69358
 -1.77024
  4.57198
  3.01496
  3.34018
  3.59880
  18.17109
 -2.06409
  22.27939
  17.41177
 -3.56815
  22.57133
  1.59644
  22.17231
 -3.73808
  17.71290
  23.41370
 -6.54981
  5.54476
  5.66330
 -3.00820
  20.52518
 -1.60451
  19.42031
  18.92499
  2.58413
  2.88378
  25.76529
  19.69676
 -4.02385
  6.84620
  2.16125
  5.21454
  0.68095
  24.98219
 -2.28695
 -6.06583
 -5.60254
  22.26050
  7.20836
  4.36017
  2.52875
 -5.51447
 -2.98134
 -5.77798
  15.72710
  24.65047
 -0.75281
  20.64729
  1.12203
 -0.26427
  3.51303
  15.63197
  1.01957
  4.97388
 -3.08499
  28.73032
  20.27861
 -2.33522
  21.52044
 -0.40396
  27.91267
  14.73793
 -3.51845
  22.20914
  28.19364
 -6.73965
 -2.35028
 -7.37722
  22.03834
  18.91492
  24.84031
  3.98768
  22.36292
 -2.64373
 -7.44533
 -5.24854
  28.58926
 -5.35603
 -7.27019
  5.13756
  3.97834
  18.40706
  14.51470
 -5.16268
 -0.32685
 -0.58499
  28.57963
 -2.30157
  3.05632
  1.50159
  25.40441
  4.91723
  22.69633
 -7.25417
  7.21295
 -2.35512
  3.22077
  26.19413
 -6.37447
  5.86537
 -5.71830
  18.05304
  17.35494
 -2.68094
 -5.74332
 -1.74874
  25.00267
  3.12833
  22.19791
  25.60459
 -1.78591
  24.88893
 -3.71394
 -3.52679
  10.97388
  23.53858
  2.22255
  22.95669
  13.39003
  15.49402
  24.36801
 -1.20963
  22.57456
 -2.23586
  5.45813
 -3.84647
  9.63233
  12.13669
  28.24584
  14.65791
  3.38933
  15.13766
  27.74813
  5.61928
  19.77021
  25.96490
  0.65649
  20.62870
  27.63150
  23.27368
  2.20876
  26.90537
  16.85811
  16.47302
  20.55786
  4.09648
 -4.70152
  24.90715
  6.20377
 -2.07402
  22.34557
  20.64897
  14.15089
 -3.78432
  22.15575
  18.99887
  23.08698
  25.37297
  24.33687
  20.00952
 -0.81145
  23.90735
  1.54634
  0.67609
  20.88311
 -6.23530
  24.01315
  0.80532
  3.13355
  25.34735
  26.05910
  25.88864
 -5.45284
  29.06659
  16.42854
  28.76418
  3.65252
  0.34355
  23.46647
 -0.76641
  22.61295
 -6.47633
 -1.97327
  28.50717
  18.39639
  22.42710
 -3.71365
  6.90055
  0.90290
  2.13007
  24.52599
  18.75606
  22.30858
  25.26391
 -3.11896
  17.55605
 -2.18416
  19.59536
  19.99406
  28.87032
 -4.59441
  25.38673
  1.13458
  7.01349
  15.30151
  17.52166
  23.28059
 -6.58461
  3.82048
  24.07722
  18.96784
  13.65625
  7.77106
 -1.81851
  22.49416
  21.62967
  14.48986
  24.91673
 -3.45171
  16.26510
  5.81301
  26.55207
  3.76674
  14.99729
 -5.90925
  22.14032
  3.68076
  28.14667
  28.01784
  26.65216
  14.65156
  6.67086
  23.88067
  2.92874
  28.98382
 -6.63010
  20.35367
  23.19713
  23.66772
 -2.32692
 -1.37501
 -5.35020
  4.67943
  3.14195
 -1.15757
  7.38928
 -0.29885
 -3.07548
 -0.70441
 -4.74501
 -6.33636
  1.99065
  5.00820
  2.71633
  1.22951
 -6.95945
 -0.52637
  5.71585
  5.70718
  6.82189
  5.49627
  5.24813
 -6.78777
  1.50450
 -1.14057
  1.29407
 -0.10610
 -6.66434
 -1.25178
 -7.24815
 -7.44713
  19.56810
 -2.97337
  7.12280
  1.42053
  25.81066
  0.82901
 -1.54824
  0.70392
 -7.08045
  6.69623
  16.16045
  2.62034
 -3.72873
 -6.47554
 -5.97060
  2.07198
  1.42343
 -1.13049
 -6.50780
  0.84336
 -2.99615
  6.58285
 -4.97930
 -4.49325
 -5.59648
  2.16282
 -3.04600
 -6.71313
 -2.95075
 -0.56528
  3.34901
 -5.07317
 -2.13000
  5.40222
  1.95405
  1.36823
  4.58133
  2.69086
  4.08182
  3.47102
  1.97088
 -6.16095
  2.90783
  1.96956
 -6.19100
  5.62936
 -3.39599
  6.88123
  3.70044
 -0.95278
  0.38487
  7.04127
 -6.17935
 -3.18624
  6.41271
  4.30737
 -0.23417
 -7.42858
  2.56083
 -5.97951
  2.54071
 -0.08964
  4.59897
  2.82875
 -3.96442
 -4.12344
  6.83750
  0.78546
 -5.40859
 -2.36641
 -1.13403
  7.18248
  3.55785
  5.57376
  2.16603
 -5.29733
 -5.10120
  21.41744
 -4.01150
 -6.35361
  0.70561
  3.82995
 -1.13487
 -3.58199
 -2.96921
  1.47009
  2.70915
 -2.79210
 -2.41072
 -6.43803
  7.01993
 -5.59739
 -2.24147
  3.49399
  1.69846
  1.82966
  1.03003
  2.12261
 -0.99915
  0.79855
 -0.70657
  5.04264
  6.78657
 -5.57787
  1.43576
  1.33665
  1.07589
 -7.45038
 -3.66378
  5.14370
 -6.68984
  2.81200
  6.70747
  1.36513
 -0.68572
 -5.55576
 -6.02756
  7.18336
 -5.11995
 -5.10031
 -1.27137
 -4.90957
 -2.64900
  0.70515
 -4.58962
 -3.23413
  4.63731
  1.33950
  5.18844
 -5.98685
 -4.10785
  1.75326
  5.24346
  1.79326
 -6.51074
  6.00240
  3.45133
  3.64131
  0.45280
 -2.01670
  3.03523
 -4.34209
 -4.17226
  4.52093
 -4.77362
 -3.57198
 -4.98383
  1.29473
  4.74171
  2.85503
  2.86211
 -6.62152
  5.81213
 -4.58492
  5.40076
 -4.22515
  1.82819
 -5.21955
 -4.85474
  0.46218
 -7.30021
 -0.70382
  2.98659
 -5.33392
 -4.33422
  1.74601
  2.41271
  4.19555
 -2.73291
  5.96095
 -1.95946
  4.09492
 -6.77466
  7.12633
  4.09550
 -7.23505
 -1.74789
 -1.37907
  6.38520
  1.59413
 -1.00853
 -1.44135
 -2.24431
  5.10405
  5.91768
  3.53413
 -1.43895
  3.85415
  1.75079
  3.65988
  5.45989
 -5.14463
 -5.82087
  2.09069
 -0.30499
 -3.31016
  1.33442
  4.95968
  7.33294
  1.90783
  5.21738
 -7.41863
  7.42534
 -7.09089
 -1.84728
  4.23943
 -4.38408
 -5.86235
 -1.60434
 -0.49983
 -4.13999
 -6.26505
  1.11241
 -5.05167
  6.12929
 -2.54444
  1.82494
 -0.27689
 -4.47882
  6.43881
 -1.70898
  7.28513
  3.90535
 -2.70183
  3.89821
 -2.08326
  6.29915
 -0.94846
  2.69814
 -2.93119
  1.71880
  4.07673
 -2.13398
  5.68967
 -3.45515
 -0.06260
 -3.54290
 -4.16038
 -6.87874
  1.29903
 -6.94235
  3.19647
 -0.97206
 -0.34225
 -1.33933
  6.56487
  1.09701
  6.45648
  4.02884
 -4.83497
  6.79568
  6.26377
  3.08624
  2.63776
  5.00199
  2.67281
 -5.28712
 -1.32456
  5.86743
 -6.23228
 -4.02142
 -1.43546
 -5.54722
  6.64242
  0.12112
 -1.56533
  3.82152
 -6.34673
  0.37839
 -6.80789
  2.87883
 -3.18191
 -5.08571
  1.37246
 -6.31450
 -1.26648
 -2.35381
 -3.33873
  5.11304
  2.78017
 -2.78899
 -0.33514
 -1.83890
  4.90345
  2.88244
 -1.86987
 -5.35701
  0.32216
  0.40015
 -3.74184
  4.66319
 -0.98917
  1.16739
  4.60859
 -0.65705
 -4.06588
 -2.86329
  0.03594
 -1.39854
 -0.98999
  0.89117
 -2.30096
  3.68649
 -1.94941
  6.15799
 -3.94973
  3.22286
  6.80447
 -6.59915
  3.72095
 -5.50401
  2.75806
 -4.86079
  6.15960
 -4.86888
  5.98578
  3.75548
 -1.14621
  1.87515
  6.43672
  0.33604
 -5.15352
 -0.44224
 -4.73930
  5.80456
 -2.85002
  1.91255
  2.34098
  1.06423
 -5.90302
  2.15034
  6.52903
  0.39373
  0.71791
  7.31891
  3.96466
  3.00074
  0.28879
 -5.90048
  1.87775
  4.05127
  3.58468
 -2.18493
  1.06797
  6.77233
  5.73560
 -4.10883
 -5.80623
  1.93043
  5.06015
 -7.01147
 -5.35936
 -6.74622
 -1.31440
 -3.47542
  4.21756
 -5.05025
  3.29423
 -0.92589
  3.09303
  2.02828
 -5.30077
  0.97908
  4.19446
 -5.41102
  1.72585
  3.91389
 -2.94556
 -6.94286
 -4.52768
  4.20339
 -0.83304
 -1.28080
 -4.79646
 -7.25237
 -5.68444
 -5.74777
 -0.01248
 -0.11561
  2.78239
 -7.08996
 -0.10494
 -3.47077
  3.74046
 -0.92402
  0.96202
 -0.59216
 -2.45686
  6.96681
 -4.31584
 -5.63896
 -2.59178
  2.23293
  2.10239
  5.76834
  2.87830
 -5.32489
 -0.69738
 -3.00991
  1.58021
 -5.03739
 -6.24417
 -5.01707
 -3.34066
 -0.39377
 -6.40637
 -1.79468
  7.25445
 -5.03216
 -3.44095
 -1.24660
 -3.25567
 -5.87678
  5.37059
 -4.21696
 -1.82018
 -3.17999
  6.29555
 -1.59432
  4.44868
 -4.33825
 -6.58398
 -0.51784
 -3.47766
  3.13199
 -4.03615
 -1.60311
 -3.78047
 -3.62690
 -1.40598
  5.94369
  6.77669
  7.33119
  3.56691
 -2.99514
  0.18106
 -7.34015
  1.80584
 -4.66678
  2.33156
 -6.42567
 -5.35608
  4.65775
  2.17594
  4.12672
 -0.72058
  5.92778
  0.00939
 -4.50253
  0.71378
 -3.06120
  4.22096
 -1.02881
  5.79951
 -4.25764
 -7.11665
 -2.80447
 -1.82844
  3.31531
 -7.38497
 -6.57910
  3.67934
 -2.82886
  6.19481
  4.33418
 -4.63774
 -2.02391
 -0.27729
  6.71152
  0.67650
 -0.34259
  5.29635
  6.18424
  5.80417
  3.56417
 -2.42128
  21.96328
  25.28016
  21.13778
 -5.24386
 -6.96466
 -2.09312
  23.75099
  19.68570
  19.40667
  18.06296
  26.48773
  20.74747
  15.58290
  28.27771
  28.27979
  18.60918
 -1.65351
  18.63798
  20.85649
  16.35323
  5.43068
  7.18270
  0.30952
  2.87919
 -3.21327
  3.67903
  2.92891
