# vtk DataFile Version 3.0
Surface Data
ASCII
DATASET POLYDATA

POINTS  1003 float
 10.156647 -2.879671 -11.688255
 9.942994 -8.186810 -10.998302
 3.561643 -7.335326 -20.516428
 7.460938 -1.882724 -17.336311
 4.119662 -0.350385  1.818367
 0.515185 -18.897951 -11.621946
 2.512603 -5.226861 -4.401145
 8.611761 -10.212147 -12.948687
 8.523148 -10.688321 -9.898942
 7.696908 -10.562956 -14.724026
 10.309509 -5.440725 -11.613640
 9.554497 -7.909738 -13.474212
 9.639742 -4.818479 -13.627804
 1.866141 -10.107659 -19.842072
 4.546356 -11.645984 -18.526918
 6.105687 -9.678785 -18.273941
 7.683991  5.729803 -1.985347
 8.010695 -1.520112 -2.249318
 10.310932  1.837476 -6.481061
 7.020840 -3.254277 -4.025401
 10.493610 -1.118224 -8.979827
-3.001104 -10.940628 -19.364363
 6.748729 -12.117476 -7.783050
 2.968300 -16.462120 -7.142045
-1.424978 -11.416144 -3.594913
 8.053286 -11.570331 -10.626449
 7.891820 -11.291271 -12.655553
 7.143930 -12.481173 -12.154428
 9.279865 -9.485709 -11.900904
 5.759333 -12.701529 -15.572084
 8.388858 -9.478503 -14.769882
 7.281695 -10.592920 -15.594337
 7.234940 -9.879556 -16.390278
 6.730186 -11.687893 -15.119180
 6.949567 -11.868918 -14.163173
 9.836677 -3.634602 -12.906468
 9.141342 -7.525037 -14.557351
 8.514008 -9.848081 -13.966874
 9.217463 -9.082504 -13.181477
 1.540763 -4.033300 -20.981972
 4.026237 -9.884432 -19.716993
 2.921142 -10.736161 -19.520712
 2.997770 -8.951917 -20.179338
 0.922904 -9.796353 -20.001484
 6.829162  3.063717 -14.064656
 9.736144 -0.948765 -12.423372
 7.641958 -0.977056 -16.618439
 8.638931 -1.228938 -15.167168
 8.543372 -2.462268 -15.868367
 9.102687  0.474704 -13.207874
 9.188670 -0.791076 -13.760685
 8.633748  0.037527 -14.349618
 5.404283  0.308028 -17.809303
 6.516031 -1.990072 -18.442657
 5.916161 -0.678338 -18.185549
 7.357178 -0.012295 -16.213236
 4.836047 -12.281994 -17.539204
 5.020277 -9.104921 -19.591339
 5.942294 -10.925424 -17.557356
 6.511066 -3.237034 -18.952267
 9.407426 -3.700205 -14.064042
 9.103324 -5.178951 -14.894842
 8.929526 -3.314570 -15.188099
 7.959284 -2.776560 -16.964123
 6.773359 -6.038857 -18.569012
 7.302833 -4.918384 -18.035301
 7.209583 -6.924409 -17.808050
 4.876088  2.735714  2.084823
 6.784547 -2.333001 -2.845655
 9.388375  4.259760 -3.907828
 6.396377 -0.482083  0.273888
 8.543448  3.273568 -0.279599
 9.555554 -1.736836 -4.276731
 9.406869  0.305425 -2.382374
 5.084785 -2.775056 -2.987696
 7.984613 -10.714903 -8.590886
 9.784015 -8.018087 -9.617573
 8.973099 -9.312023 -9.092319
 8.243367 -9.157362 -7.891414
 7.170122 -8.928751 -6.927064
 10.381176 -3.693896 -10.961200
 9.661517 -5.646828 -7.502870
 10.484657 -5.849601 -10.555833
 10.307219 -6.854792 -10.153802
 5.986627 -5.980479 -5.591811
 7.218526 -7.033733 -6.356473
 10.403716 -2.268729 -10.387831
 9.557355  0.300141 -12.335176
 5.785618 -3.538422 -4.128023
 9.978297  1.385068 -10.361785
 9.770159 -2.602884 -5.527668
 2.003058 -13.208613 -18.045961
 7.442811 -12.266367 -9.476164
 6.322137 -13.932699 -8.577313
 7.269884 -12.660037 -10.921520
 6.637446 -13.730809 -10.017980
 5.920076 -13.188701 -14.390217
-6.597354 -10.230858 -3.273449
-6.914699 -11.995280 -3.909336
-6.076509 -17.791752 -11.409301
-9.042076 -13.136410 -13.369699
 3.819881 -15.085158 -6.489181
 0.498805 -15.731707 -5.345648
-0.925884 -14.673926 -4.477044
 1.400916 -18.186012 -8.970206
-4.349331 -16.423120 -4.722899
 4.506951 -16.535233 -9.392273
 4.266817 -15.485145 -14.120442
 6.068984 -10.750817 -6.610438
 3.910086 -8.814476 -5.493434
 3.109878 -10.387027 -5.202106
-2.399475 -10.189294 -3.002437
 2.015129 -13.472507 -4.857242
 0.751326 -13.690982 -4.559243
 4.001605 -4.146379 -4.211348
 1.347840 -2.104009 -21.039686
-3.477412 -0.894178 -1.007799
-8.187770 -7.057658 -17.467331
-9.910604  1.736915 -9.734042
 2.350469 -4.009194 -3.593823
-7.792516  1.515128 -13.630612
-6.037720  0.294739 -17.376640
-2.098915 -9.661245 -20.243687
-6.811034 -3.382022 -18.715067
-5.528039 -5.214202 -19.657701
-5.719356 -7.020724 -19.352282
-5.324605 -2.461851 -19.641415
-1.567805 -4.601550 -21.059080
 5.853924  3.171340 -14.905951
 4.906146  2.971002 -15.789933
 3.271113  5.166257 -14.639789
 3.796068  1.859736 -17.479656
 3.350864  3.327217 -16.404884
 1.393063 -1.922039  0.307555
 4.155134  6.296993 -0.298788
-6.296926  3.769675 -12.056069
-10.355367  0.400332 -12.393078
-9.420701 -0.396020 -14.504526
-10.214417 -2.591683 -15.464972
-9.412136 -9.027701 -7.122894
-8.384316  1.043297 -6.077800
-0.896735 -9.644930 -3.505849
-5.360726 -1.790341 -1.614465
-1.445056 -8.126097 -2.759109
-8.293009 -2.369576 -4.160585
-9.102443 -6.191111 -6.050254
 6.372190 -4.103437 -19.233067
 5.835587 -4.699509 -19.734022
 8.157930 -5.804249 -16.621269
 10.204219 -2.284807 -6.728350
 7.979694 -4.821746 -17.031172
-2.418350  3.926763 -17.119032
-5.915280 -4.845281 -1.428929
 9.935629 -3.943275 -6.901624
 7.559722 -5.839600 -17.534060
 6.018398 -6.887534 -19.316332
 9.345223 -4.700493 -6.394309
 4.846220 -14.266315 -14.885380
 5.505494 -9.747027 -18.988195
 8.620593 -5.861104 -15.818004
-3.468234  3.978749 -16.331898
 0.404966 -9.126882 -4.142193
 5.709818 -3.620444 -19.812719
 0.507248  0.924841 -19.789253
 7.776597 -6.615734 -17.068707
 9.451869 -3.648473 -5.722364
-4.413431  1.992902 -17.609903
-7.573765 -2.667171 -2.567148
 5.251689 -7.646940 -19.831470
 3.828103 -6.517960 -5.143908
-3.593550 -1.397153 -20.229774
 5.656909 -14.240216 -13.115671
-7.543674 -1.654503 -3.261917
 8.252243 -6.940047 -16.244524
 9.235322 -2.814197 -4.681275
 6.819051 -8.322876 -17.913124
 7.001736 -4.016420 -18.480303
 8.332738 -3.688066 -16.451077
 7.250197 -2.981036 -17.994247
 6.708386 -9.729943 -17.365711
 5.356682 -10.869595 -18.414820
 9.032708 -4.256624 -15.057533
 4.760675 -3.562683 -20.466492
 5.717327 -15.176403 -9.619389
 7.961957 -8.434865 -16.161900
 4.606793 -6.849121 -20.320999
-2.416894 -1.436752 -20.632782
 5.132852 -4.389947 -20.263968
 10.405944 -3.672126 -8.400569
 4.782920 -10.512223 -19.152485
 8.880774 -6.567271 -15.254514
 6.563051 -4.360404 -4.901286
 4.284080 -8.299845 -20.141880
 8.596015 -7.625101 -15.520420
 7.515234 -5.196809 -5.600548
-6.565594  1.204343 -4.315384
-0.256801 -1.212975 -20.920750
-1.853996  6.873626 -10.586415
 9.063851 -1.699464 -3.419222
-2.494939  4.850358 -4.030617
-8.111308 -0.697012 -5.140455
 9.416729 -6.149607 -14.226047
 5.214036 -4.807308 -4.956079
-2.876153  4.956854 -15.343157
-10.561433 -4.059052 -15.304000
 10.344893 -0.593886 -6.508375
 5.886853 -2.633335 -19.424082
 1.467779  0.569745 -19.887877
-5.308174  1.400682 -17.124500
 6.505692 -10.772154 -16.829941
 8.976390 -2.011505 -14.811255
 9.373940 -2.199806 -13.848016
 5.747714 -11.981737 -16.646175
 4.555001 -15.838552 -7.895914
-10.534574 -6.532310 -9.933337
-9.348539 -6.016078 -7.188755
 8.549308 -8.584477 -15.172937
 6.922285 -0.865021 -17.339764
 1.447533  2.735351 -17.792700
 2.595867  0.473988 -19.579498
 7.906411 -9.588953 -15.508667
 8.113524 -1.643669 -16.317951
-5.605849  1.969208 -3.987558
 10.206916 -5.044816 -8.206629
 3.841918 -11.351502 -19.054064
 10.075954  0.251093 -4.753480
 10.055511  1.879441 -4.339603
 2.785902  7.820522 -5.398786
 9.660709 -6.878872 -13.644097
-1.233580  4.975175 -3.067986
 5.296041 -1.605811 -19.407866
 0.444508 -3.046917 -21.043821
 3.539695 -2.153827 -20.690001
 1.653580 -17.030809 -7.046051
 6.594129 -11.273801 -16.052668
 5.468297 -13.929891 -7.232308
 8.898339  2.595583 -11.625946
 5.727090  5.889473 -11.614735
 2.457524 -12.008668 -4.902222
 9.817583 -2.390190 -12.637414
 3.124932 -13.137262 -5.188405
 9.545978  3.962213 -6.081200
 3.832723 -11.974206 -5.442583
 5.873412  6.835319 -6.703783
 10.070657 -4.376305 -12.345891
 2.319498 -15.704911 -5.958588
 2.885245 -14.379436 -5.459093
 1.454304 -14.851226 -5.118676
-6.627899 -4.865077 -18.874554
 7.289963  3.959112 -12.577931
 4.135943 -13.515461 -5.875257
 7.951188  5.724643 -3.938868
 9.896816 -5.777723 -13.062079
 2.850955 -12.029429 -18.814135
 1.171802 -16.407312 -6.098457
 8.968082 -8.764174 -14.238776
 8.089380 -0.481007 -15.619029
 2.416766  3.574169 -16.625385
-3.750865  1.101500 -1.937493
 1.747907 -6.979300 -20.697948
-8.067965  2.402853 -6.484343
 2.425123 -8.605805 -4.972134
 10.509106 -4.478281 -10.089877
 2.905943 -4.294679 -20.897461
-6.718014 -7.676458 -18.434484
 1.214886 -12.362223 -4.530056
 9.657720  2.353427 -2.617418
 4.802429 -0.292833 -18.829462
-6.697080  0.414792 -16.272827
 1.396689 -15.728270 -5.551083
-5.914830 -3.630472 -19.391138
-9.814365 -4.784841 -8.210690
-7.226359 -0.551642 -16.834253
 9.220608  4.035990 -2.238229
 6.400250 -12.891647 -13.585370
-9.948027 -1.505080 -15.005909
 8.319884  0.363194 -0.793434
 3.670083  0.207503 -19.214561
-6.387081 -6.212558 -18.939474
 5.926372 -14.437928 -7.957051
 10.446498 -5.414855 -9.388864
-0.461502 -4.091295 -21.038155
 1.701562 -11.680816 -19.070747
-4.520330 -4.871066 -20.334124
 10.007252 -6.875455 -12.628247
 8.755396  1.998195 -12.580146
 1.567414 -8.561748 -20.373152
 8.620623 -6.026397 -6.637374
 0.072052 -14.790589 -4.745179
 10.269230 -6.926882 -11.406965
 6.688474  5.018513  0.413833
-8.887039 -0.786957 -15.439334
 7.820720 -10.955259 -13.657620
 10.065042 -6.460855 -8.836083
-1.489372 -6.152799 -21.090176
 3.305015  4.205122 -15.628783
-0.917749 -15.744194 -5.034694
 5.953571 -1.822922 -1.622262
 6.366606  0.351427 -16.918255
 6.469709 -13.170877 -12.763647
 3.961679  2.705124 -16.609941
 8.648985  1.259821 -13.383758
 4.744916 -10.498299 -5.834288
-4.201099  4.419521 -4.852829
 4.414262  0.933845 -17.971767
 7.398736  1.461882  0.756460
 1.432509  4.283730  1.347101
 0.665045 -5.321168 -20.934074
 2.221066  5.546592 -14.609402
 0.991520 -10.776753 -19.574488
 5.573512 -8.330404 -6.033019
 5.716404  0.740807  1.572094
 2.415131  1.601183  2.570031
-5.384135  4.239407 -12.549120
 3.206902  5.970428 -13.525846
 9.827912 -8.117760 -12.302157
-3.761485 -15.355753 -4.197552
-3.468733 -6.761287 -20.836180
 4.259901  4.686639 -14.612007
 7.099832 -12.079335 -13.213503
[...]
POINT_DATA  1003
SCALARS atrophy float 1
LOOKUP_TABLE default
  5.16045
  5.00015
  7.25297
  3.61313
  5.73223
  3.63457
  4.86617
  9.02548
  3.35373
  2.96770
  0.39127
  1.95952
  7.79413
 -2.75513
 -0.15886
  8.85629
  2.95030
 -1.85847
  7.30703
  2.38761
 -1.42513
 -3.83411
  8.72570
  4.56064
  0.15253
 -1.26202
  9.34809
  0.30268
  6.99262
 -0.21636
 -2.35678
  10.63661
  10.81708
 -3.47668
  4.26746
  7.33753
  4.84774
  7.02588
 -3.12177
  6.61467
 -7.28664
  1.81455
 -2.56674
 -4.27133
  3.08131
  2.19274
  2.31978
  7.01682
  7.25940
  10.90944
  9.37772
  6.89436
  1.68884
 -3.33642
  8.47251
 -1.69355
 -3.31039
  0.64434
  2.34226
  6.54018
  11.11214
  3.55895
  8.12676
 -1.92523
 -1.80153
 -2.90377
  6.22858
 -1.49312
  7.55060
  11.31927
  7.33569
 -2.73754
  1.61306
  4.54873
  3.96045
 -3.38675
 -2.68862
  11.37439
  8.71760
 -0.98980
  5.72874
  7.22146
  8.70851
  3.95163
  8.47857
  4.18560
 -1.91315
  10.03691
 -1.39254
 -0.49402
  3.58477
 -5.27245
 -0.64975
  1.66445
 -0.64347
 -0.40049
  10.15059
  6.83289
  3.50954
 -1.19051
 -3.55459
  5.14421
 -2.60810
 -4.72662
 -3.20572
  6.17394
 -6.35611
  5.26189
  6.35128
  6.40323
  0.99776
  7.35368
  3.27429
 -0.91380
 -4.57185
  2.19726
  1.92623
 -3.56151
 -5.13125
 -6.75488
  2.97779
  5.97428
  4.97641
 -1.27406
  3.64107
  6.39385
 -7.04909
 -4.58805
  4.60407
  2.99175
 -4.03117
 -1.78869
 -0.88315
  2.56815
  4.63830
 -1.30857
 -6.77543
 -2.81860
  0.88140
  6.67934
 -0.63393
  0.94900
 -0.70189
 -6.32412
 -5.66813
 -0.38778
  7.04493
  9.67637
  2.43970
  8.03558
  1.04516
  6.05621
 -7.23583
  8.33029
  1.14736
  8.89583
  7.05727
 -4.78357
 -1.28727
  7.45309
 -0.97947
  3.07719
 -2.04622
  6.70079
  4.53358
  11.36088
  2.55399
 -2.63175
  1.66895
 -1.04387
 -6.26156
  1.17188
 -6.03365
  6.35485
  5.84603
  8.00245
 -1.94492
  7.82964
 -3.27683
 -3.12103
  1.77927
  10.11795
 -2.74376
  4.38342
  4.79892
  6.38175
 -5.28019
  6.57828
  0.11195
  6.73608
 -0.96011
  5.49128
 -5.52481
  9.77496
  5.29051
 -4.44315
  3.20533
 -0.53826
  3.70744
 -3.15284
 -0.31329
  10.84872
  4.94398
  7.43363
 -7.41457
  9.85258
  5.49680
 -5.48981
  1.72609
 -3.48258
  6.05098
  4.04873
  7.40845
 -6.61007
  4.65112
  6.40111
  11.01894
  6.03488
  2.97535
  4.79059
  3.97879
 -0.79253
 -0.46073
  9.55524
 -5.55183
  0.65367
  2.61088
 -0.75459
  6.01879
  3.76374
  4.90296
 -0.04306
 -7.27044
  5.59207
  0.28490
 -0.12480
  8.42202
  7.20494
  1.35882
  5.67153
  4.20361
 -0.72760
 -6.90024
  4.71253
  4.26674
  7.30986
 -0.84649
 -3.47687
  0.48192
  1.40562
 -5.39873
 -2.20562
  5.92784
 -1.74408
 -3.53419
  0.79522
 -1.16312
  2.20320
 -0.54828
  0.82479
  6.56085
  6.52339
  10.33274
 -4.79671
  4.46386
  3.12633
  3.43719
  2.74072
 -4.13392
  3.15099
  2.99793
 -4.61788
 -5.29030
  4.03279
  10.37382
 -4.55751
  2.63552
  4.68409
 -2.83714
 -2.71890
  9.37559
  4.20759
  4.75200
  6.30807
  7.21986
 -2.30686
  7.37793
  4.09943
  3.13723
  5.70236
 -0.52912
 -4.21047
 -0.26791
 -3.20089
  5.63476
  4.04032
 -3.48262
  2.79014
  7.50238
  9.39712
  7.14570
  7.76340
  4.93587
  3.35543
  1.53639
  1.52701
  4.12459
  0.24709
 -3.69875
 -2.71331
  10.30718
  1.13439
  2.73744
 -4.54434
 -2.62850
 -0.50470
 -2.71909
 -5.81536
  5.10121
  2.32103
  0.05854
  9.45669
 -1.07477
  1.37968
  7.08164
  4.27103
  6.67866
 -4.85279
  3.23949
  5.18484
  3.36097
 -3.10095
  7.44012
  1.33516
 -1.18380
 -0.81723
 -2.84630
  8.86461
 -1.76608
 -7.15750
  3.20768
 -0.50208
 -3.96603
  1.39885
  9.02358
  7.16758
 -0.10012
  9.25219
  9.08216
  4.43410
  5.45698
  9.11330
  0.16978
  4.62871
 -1.59319
  3.39616
  1.66600
  5.07668
  4.16241
  0.66267
 -1.03502
  7.14364
 -4.92849
  1.94556
 -0.15371
  4.50029
 -3.14094
 -2.29024
  8.06415
 -3.47915
  6.53967
  1.23394
  6.55029
  5.91953
 -4.19247
  1.89016
  5.45507
 -1.44827
 -0.54937
  0.30117
  0.01899
  6.34188
  0.94647
  4.72639
  2.26356
  10.54172
  1.41172
  2.80590
  6.42080
  4.40844
  5.24786
 -4.51552
  0.28552
 -0.78579
 -6.16890
  3.61303
  4.98148
 -0.93193
  11.19754
  0.58111
  9.55210
  3.27696
 -1.52413
  4.24469
  1.07824
  2.07914
 -3.29180
  5.42752
 -6.25607
  9.40320
  3.06061
  3.66214
  6.53595
 -3.40555
  9.69795
 -5.71795
  2.77288
 -6.80456
  6.76659
  2.07138
  3.70348
  7.92575
  1.39153
 -0.73817
 -2.30661
  6.39647
  7.22277
  6.86245
  1.24883
 -1.95760
 -3.23011
  1.31905
 -5.27284
  7.04133
  3.18261
 -2.89318
 -6.59607
 -3.18858
  11.32064
  8.34152
  3.92866
 -3.76606
 -0.38413
  3.43811
  2.44672
 -3.28202
  2.24188
  1.63676
  6.37102
  6.00466
  10.00815
 -4.65482
  2.14707
 -6.86564
  9.08155
  3.88891
  10.14989
 -2.13103
  7.76281
 -2.60148
  4.74708
  2.53210
 -1.00496
  3.07180
 -0.94492
  9.64087
  3.53956
 -3.09597
  2.74156
 -3.16857
 -1.80482
  0.17694
  5.10721
 -0.10903
 -6.82254
 -4.66479
 -3.66981
  2.03267
 -3.63240
  6.55526
 -4.71700
 -4.97147
  4.48347
  5.73005
 -3.38635
  2.53628
 -3.29618
 -4.00752
  6.61676
  4.83355
 -0.67580
 -4.44095
  2.58918
  3.98416
  6.89330
 -2.73048
 -6.10962
  2.85518
  3.60044
  1.38168
 -1.31415
 -6.56569
  1.46120
  3.38385
  3.22260
  3.53357
 -1.16644
  1.72511
  5.03006
 -4.63112
 -2.64926
  0.17085
  7.02827
  6.59642
 -6.72486
 -6.95298
 -0.99067
  5.46443
  5.08790
  1.95024
 -1.03993
 -3.10136
  6.81582
  3.49922
  6.91259
 -5.18102
 -0.53263
 -5.18357
  1.03628
  4.79283
 -1.70108
  0.49496
  0.01082
 -3.81247
 -3.00422
 -5.74403
  5.60583
 -6.21637
  1.45764
  1.65584
 -5.09105
  2.23227
  5.65994
  6.54677
  3.08530
 -1.18156
 -5.29420
 -3.30292
 -0.68205
  5.66261
  6.28369
  0.59631
 -5.88082
 -1.63979
  5.35553
 -7.09859
  0.27509
 -0.22464
  1.90823
 -3.95141
 -4.07606
  3.05904
 -5.75210
  6.64461
  1.82264
 -6.19623
  5.54963
 -1.29086
  1.46668
 -6.71085
  0.12102
  1.50968
  3.99018
  3.44732
  6.36328
 -6.60700
  2.18675
  7.00963
 -5.76964
 -7.17397
 -4.74037
  5.08643
 -0.78728
  2.97062
 -5.82157
  3.53328
  6.78512
 -2.33827
  7.24224
  7.36591
 -0.89394
  3.78924
 -3.55482
  3.39808
  0.30984
 -4.75587
 -6.00445
 -2.82808
  0.87119
 -4.78640
  0.72059
 -0.10307
  0.75726
 -6.10713
  0.75570
 -6.14300
 -2.99425
 -4.58539
  2.87356
 -5.64209
 -3.25659
 -0.83324
  5.32053
  5.04346
 -6.45260
  4.66450
  3.88880
  1.00224
 -6.14213
 -0.31944
  0.79475
 -3.77708
  5.80772
 -2.82806
  4.85082
 -6.27566
  1.63864
  5.60939
  3.06345
  6.68681
 -1.37695
  4.68710
 -4.31835
  4.07886
  6.42608
 -0.90294
 -5.39161
 -0.89030
  2.48798
  7.04814
  2.41328
  3.82305
 -2.59702
  1.23965
 -3.12803
  2.49302
 -5.01830
  5.55701
 -2.93561
  4.43041
 -3.18771
  6.17465
  0.51234
  1.04467
  0.94755
  3.84059
 -7.40649
 -2.63534
  6.67486
  2.55946
 -4.25834
  2.09351
 -2.41112
 -2.81543
  0.85891
 -4.81494
  1.92929
  7.08862
  0.77931
 -2.11407
 -4.39085
  1.93086
 -3.84576
  4.86750
  0.17011
  2.11118
 -3.03344
  2.75355
  0.48588
  1.19222
 -0.87311
 -2.91683
 -7.44271
  5.46145
  3.72095
  7.16607
 -5.12093
  6.20195
 -1.84516
  3.45873
  5.87151
  6.33624
 -3.48928
 -5.13211
  1.57528
  4.61880
  7.11211
  4.71165
  2.82535
 -5.98305
  4.44435
  2.92184
 -2.21932
  0.18420
  0.45737
  7.20846
 -4.27327
 -1.06202
  0.65000
  5.37393
 -3.00847
 -1.31375
 -3.52455
  0.69001
 -6.87214
  4.05066
  0.87727
 -2.98542
  7.03362
  6.05558
  0.77065
  3.93760
 -2.86712
  0.62010
  2.04311
  1.19679
  6.26806
 -1.58036
 -2.31362
 -0.75051
  0.35816
  4.43917
  6.76098
 -3.22496
  3.72217
  6.61020
 -6.95135
 -5.98855
 -6.91960
  2.18323
  1.61300
  6.81582
  2.42099
  5.76530
 -1.74649
  0.74730
  2.99190
 -3.50123
 -1.75274
  4.95583
  6.32840
  1.14621
  3.45382
  1.74122
  1.12498
 -1.28480
 -0.39208
  4.70925
  2.84332
  4.52484
 -3.97652
 -7.33803
  1.30342
  0.00977
  4.57166
 -7.03156
 -5.66947
 -7.32534
 -5.00415
  5.32832
 -0.88360
 -7.21699
  1.68279
 -6.51500
  2.22702
 -5.11692
  6.53059
 -6.46105
 -4.35448
  2.69028
 -6.58061
  6.31894
 -1.98680
  4.00375
  2.55070
  4.05720
  4.01871
 -6.90312
  5.73501
  6.31430
  5.84372
  2.54861
 -1.88155
 -1.20756
  4.02327
 -5.47666
  5.43938
 -6.09492
 -1.20234
 -6.70337
 -4.80433
  1.55989
  1.05940
 -5.88093
  7.30257
 -5.85174
 -2.16028
 -4.91968
 -7.36194
  4.95674
 -4.26612
  5.16080
  5.24329
  7.05017
 -0.95703
 -4.69590
 -2.56413
 -2.43010
 -4.40360
 -0.86713
 -3.97758
  6.84754
 -6.95277
  3.88160
 -0.88680
  6.62137
  5.10997
  0.13201
  6.62965
  7.19533
 -1.29007
  7.10848
  3.00529
  7.42958
 -0.21117
 -2.61285
  5.34414
 -0.75821
  4.45298
 -0.71977
 -1.92946
 -6.45450
  2.05754
  1.07587
 -6.54242
  2.12938
 -1.52265
 -6.44933
 -5.78026
 -5.26621
 -0.54777
  5.61407
 -3.11474
 -6.71449
 -2.87016
 -3.39327
 -6.28452
  7.25705
  7.26800
  5.72536
  1.24345
 -1.11457
 -0.64036
  3.47230
 -0.92850
  3.40073
 -0.94559
 -6.30606
  2.79274
  1.16972
  1.00127
 -0.94572
  0.71908
  4.33428
  1.76053
 -2.05513
 -1.93496
 -2.98764
 -6.42871
  4.53431
  1.76824
  5.96975
 -3.40548
  5.47190
 -3.46652
  7.25690
  1.16658
 -3.49385
 -0.19928
  0.91359
 -6.57292
  1.04063
 -2.91609
  6.01301
 -2.14364
 -5.33747
  7.14727
 -7.41371
  1.19823
 -2.12918
 -1.81026
  6.13837
 -3.61539
 -6.50410
  0.36753
 -5.30672
 -7.02917
  1.70575
  2.76881
 -2.87001
  2.25777
  1.73970
  6.20821
  3.93390
  5.70841
 -1.71412
  3.17385
 -4.56563
  0.59680
 -6.01225
 -6.10193
  3.73766
  1.46522
  0.98300
 -3.55171
 -4.63855
  5.68976
 -3.69272
  3.31099
 -6.51670
  2.30334
 -6.74352
  6.77798
  0.66103
  1.74240
 -6.00541
  6.43923
  6.05471
 -4.09979
  4.03695
  0.45688
 -1.59816
  4.93074
 -4.52883
  0.61500
 -6.35811
  1.14813
 -1.88453
 -0.69905
  1.65218
  1.43216
  6.54422
  4.29225
  4.45298
  5.30269
  1.31947
  3.27409
 -0.72340
 -6.37054
 -5.33814
 -5.64142
 -3.22043
  5.73076
 -4.13778
 -6.77694
 -6.71540
  5.05021
 -2.94754
  4.88171
  6.27478
 -0.84849
  0.27558
 -2.80784
  5.83552
 -6.03331
 -4.19149
  10.40254
  9.12413
  6.37786
  4.34590
 -4.42500
  3.09806
  9.40849
 -2.35020
  0.71063
 -2.38098
 -0.82428
  8.06686
  1.29879
  2.31145
 -2.13110
  2.99619
  6.49907
  6.27706
  8.37629
 -3.01302
  0.20286
 -6.91406
 -1.80507
 -0.83887
 -0.83883
  4.55779
  6.04095
